# vtk DataFile Version 2.0
VTK from Matlab
ASCII
DATASET STRUCTURED_GRID
DIMENSIONS 32 32 32
POINTS 32768 float
0.01 0.01 0.03 0.01 0.05 0.03 0.01 0.08 0.03 0.01 0.11 0.03 0.01 0.14 0.03 0.01 0.17 0.03 0.01 0.20 0.03 0.01 0.24 0.03 0.01 0.26 0.03 0.01 0.30 0.03 0.01 0.33 0.03 0.01 0.36 0.03 0.01 0.39 0.03 0.01 0.42 0.03 0.01 0.45 0.03 0.01 0.49 0.03 0.01 0.51 0.03 0.01 0.55 0.03 0.01 0.58 0.03 0.01 0.61 0.03 0.01 0.64 0.03 0.01 0.67 0.03 0.01 0.70 0.03 0.01 0.74 0.03 0.01 0.76 0.03 0.01 0.80 0.03 0.01 0.83 0.03 0.01 0.86 0.03 0.01 0.89 0.03 0.01 0.92 0.03 0.01 0.95 0.03 0.01 0.99 0.03 0.05 0.01 0.03 0.05 0.05 0.03 0.05 0.08 0.03 0.05 0.11 0.03 0.05 0.14 0.03 0.05 0.17 0.03 0.05 0.20 0.03 0.05 0.24 0.03 0.05 0.26 0.03 0.05 0.30 0.03 0.05 0.33 0.03 0.05 0.36 0.03 0.05 0.39 0.03 0.05 0.42 0.03 0.05 0.45 0.03 0.05 0.49 0.03 0.05 0.51 0.03 0.05 0.55 0.03 0.05 0.58 0.03 0.05 0.61 0.03 0.05 0.64 0.03 0.05 0.67 0.03 0.05 0.70 0.03 0.05 0.74 0.03 0.05 0.76 0.03 0.05 0.80 0.03 0.05 0.83 0.03 0.05 0.86 0.03 0.05 0.89 0.03 0.05 0.92 0.03 0.05 0.95 0.03 0.05 0.99 0.03 0.08 0.01 0.03 0.08 0.05 0.03 0.08 0.08 0.03 0.08 0.11 0.03 0.08 0.14 0.03 0.08 0.17 0.03 0.08 0.20 0.03 0.08 0.24 0.03 0.08 0.26 0.03 0.08 0.30 0.03 0.08 0.33 0.03 0.08 0.36 0.03 0.08 0.39 0.03 0.08 0.42 0.03 0.08 0.45 0.03 0.08 0.49 0.03 0.08 0.51 0.03 0.08 0.55 0.03 0.08 0.58 0.03 0.08 0.61 0.03 0.08 0.64 0.03 0.08 0.67 0.03 0.08 0.70 0.03 0.08 0.74 0.03 0.08 0.76 0.03 0.08 0.80 0.03 0.08 0.83 0.03 0.08 0.86 0.03 0.08 0.89 0.03 0.08 0.92 0.03 0.08 0.95 0.03 0.08 0.99 0.03 0.11 0.01 0.03 0.11 0.05 0.03 0.11 0.08 0.03 0.11 0.11 0.03 0.11 0.14 0.03 0.11 0.17 0.03 0.11 0.20 0.03 0.11 0.24 0.03 0.11 0.26 0.03 0.11 0.30 0.03 0.11 0.33 0.03 0.11 0.36 0.03 0.11 0.39 0.03 0.11 0.42 0.03 0.11 0.45 0.03 0.11 0.49 0.03 0.11 0.51 0.03 0.11 0.55 0.03 0.11 0.58 0.03 0.11 0.61 0.03 0.11 0.64 0.03 0.11 0.67 0.03 0.11 0.70 0.03 0.11 0.74 0.03 0.11 0.76 0.03 0.11 0.80 0.03 0.11 0.83 0.03 0.11 0.86 0.03 0.11 0.89 0.03 0.11 0.92 0.03 0.11 0.95 0.03 0.11 0.99 0.03 0.14 0.01 0.03 0.14 0.05 0.03 0.14 0.08 0.03 0.14 0.11 0.03 0.14 0.14 0.03 0.14 0.17 0.03 0.14 0.20 0.03 0.14 0.24 0.03 0.14 0.26 0.03 0.14 0.30 0.03 0.14 0.33 0.03 0.14 0.36 0.03 0.14 0.39 0.03 0.14 0.42 0.03 0.14 0.45 0.03 0.14 0.49 0.03 0.14 0.51 0.03 0.14 0.55 0.03 0.14 0.58 0.03 0.14 0.61 0.03 0.14 0.64 0.03 0.14 0.67 0.03 0.14 0.70 0.03 0.14 0.74 0.03 0.14 0.76 0.03 0.14 0.80 0.03 0.14 0.83 0.03 0.14 0.86 0.03 0.14 0.89 0.03 0.14 0.92 0.03 0.14 0.95 0.03 0.14 0.99 0.03 0.17 0.01 0.03 0.17 0.05 0.03 0.17 0.08 0.03 0.17 0.11 0.03 0.17 0.14 0.03 0.17 0.17 0.03 0.17 0.20 0.03 0.17 0.24 0.03 0.17 0.26 0.03 0.17 0.30 0.03 0.17 0.33 0.03 0.17 0.36 0.03 0.17 0.39 0.03 0.17 0.42 0.03 0.17 0.45 0.03 0.17 0.49 0.03 0.17 0.51 0.03 0.17 0.55 0.03 0.17 0.58 0.03 0.17 0.61 0.03 0.17 0.64 0.03 0.17 0.67 0.03 0.17 0.70 0.03 0.17 0.74 0.03 0.17 0.76 0.03 0.17 0.80 0.03 0.17 0.83 0.03 0.17 0.86 0.03 0.17 0.89 0.03 0.17 0.92 0.03 0.17 0.95 0.03 0.17 0.99 0.03 0.20 0.01 0.03 0.20 0.05 0.03 0.20 0.08 0.03 0.20 0.11 0.03 0.20 0.14 0.03 0.20 0.17 0.03 0.20 0.20 0.03 0.20 0.24 0.03 0.20 0.26 0.03 0.20 0.30 0.03 0.20 0.33 0.03 0.20 0.36 0.03 0.20 0.39 0.03 0.20 0.42 0.03 0.20 0.45 0.03 0.20 0.49 0.03 0.20 0.51 0.03 0.20 0.55 0.03 0.20 0.58 0.03 0.20 0.61 0.03 0.20 0.64 0.03 0.20 0.67 0.03 0.20 0.70 0.03 0.20 0.74 0.03 0.20 0.76 0.03 0.20 0.80 0.03 0.20 0.83 0.03 0.20 0.86 0.03 0.20 0.89 0.03 0.20 0.92 0.03 0.20 0.95 0.03 0.20 0.99 0.03 0.24 0.01 0.03 0.24 0.05 0.03 0.24 0.08 0.03 0.24 0.11 0.03 0.24 0.14 0.03 0.24 0.17 0.03 0.24 0.20 0.03 0.24 0.24 0.03 0.24 0.26 0.03 0.24 0.30 0.03 0.24 0.33 0.03 0.24 0.36 0.03 0.24 0.39 0.03 0.24 0.42 0.03 0.24 0.45 0.03 0.24 0.49 0.03 0.24 0.51 0.03 0.24 0.55 0.03 0.24 0.58 0.03 0.24 0.61 0.03 0.24 0.64 0.03 0.24 0.67 0.03 0.24 0.70 0.03 0.24 0.74 0.03 0.24 0.76 0.03 0.24 0.80 0.03 0.24 0.83 0.03 0.24 0.86 0.03 0.24 0.89 0.03 0.24 0.92 0.03 0.24 0.95 0.03 0.24 0.99 0.03 0.26 0.01 0.03 0.26 0.05 0.03 0.26 0.08 0.03 0.26 0.11 0.03 0.26 0.14 0.03 0.26 0.17 0.03 0.26 0.20 0.03 0.26 0.24 0.03 0.26 0.26 0.03 0.26 0.30 0.03 0.26 0.33 0.03 0.26 0.36 0.03 0.26 0.39 0.03 0.26 0.42 0.03 0.26 0.45 0.03 0.26 0.49 0.03 0.26 0.51 0.03 0.26 0.55 0.03 0.26 0.58 0.03 0.26 0.61 0.03 0.26 0.64 0.03 0.26 0.67 0.03 0.26 0.70 0.03 0.26 0.74 0.03 0.26 0.76 0.03 0.26 0.80 0.03 0.26 0.83 0.03 0.26 0.86 0.03 0.26 0.89 0.03 0.26 0.92 0.03 0.26 0.95 0.03 0.26 0.99 0.03 0.30 0.01 0.03 0.30 0.05 0.03 0.30 0.08 0.03 0.30 0.11 0.03 0.30 0.14 0.03 0.30 0.17 0.03 0.30 0.20 0.03 0.30 0.24 0.03 0.30 0.26 0.03 0.30 0.30 0.03 0.30 0.33 0.03 0.30 0.36 0.03 0.30 0.39 0.03 0.30 0.42 0.03 0.30 0.45 0.03 0.30 0.49 0.03 0.30 0.51 0.03 0.30 0.55 0.03 0.30 0.58 0.03 0.30 0.61 0.03 0.30 0.64 0.03 0.30 0.67 0.03 0.30 0.70 0.03 0.30 0.74 0.03 0.30 0.76 0.03 0.30 0.80 0.03 0.30 0.83 0.03 0.30 0.86 0.03 0.30 0.89 0.03 0.30 0.92 0.03 0.30 0.95 0.03 0.30 0.99 0.03 0.33 0.01 0.03 0.33 0.05 0.03 0.33 0.08 0.03 0.33 0.11 0.03 0.33 0.14 0.03 0.33 0.17 0.03 0.33 0.20 0.03 0.33 0.24 0.03 0.33 0.26 0.03 0.33 0.30 0.03 0.33 0.33 0.03 0.33 0.36 0.03 0.33 0.39 0.03 0.33 0.42 0.03 0.33 0.45 0.03 0.33 0.49 0.03 0.33 0.51 0.03 0.33 0.55 0.03 0.33 0.58 0.03 0.33 0.61 0.03 0.33 0.64 0.03 0.33 0.67 0.03 0.33 0.70 0.03 0.33 0.74 0.03 0.33 0.76 0.03 0.33 0.80 0.03 0.33 0.83 0.03 0.33 0.86 0.03 0.33 0.89 0.03 0.33 0.92 0.03 0.33 0.95 0.03 0.33 0.99 0.03 0.36 0.01 0.03 0.36 0.05 0.03 0.36 0.08 0.03 0.36 0.11 0.03 0.36 0.14 0.03 0.36 0.17 0.03 0.36 0.20 0.03 0.36 0.24 0.03 0.36 0.26 0.03 0.36 0.30 0.03 0.36 0.33 0.03 0.36 0.36 0.03 0.36 0.39 0.03 0.36 0.42 0.03 0.36 0.45 0.03 0.36 0.49 0.03 0.36 0.51 0.03 0.36 0.55 0.03 0.36 0.58 0.03 0.36 0.61 0.03 0.36 0.64 0.03 0.36 0.67 0.03 0.36 0.70 0.03 0.36 0.74 0.03 0.36 0.76 0.03 0.36 0.80 0.03 0.36 0.83 0.03 0.36 0.86 0.03 0.36 0.89 0.03 0.36 0.92 0.03 0.36 0.95 0.03 0.36 0.99 0.03 0.39 0.01 0.03 0.39 0.05 0.03 0.39 0.08 0.03 0.39 0.11 0.03 0.39 0.14 0.03 0.39 0.17 0.03 0.39 0.20 0.03 0.39 0.24 0.03 0.39 0.26 0.03 0.39 0.30 0.03 0.39 0.33 0.03 0.39 0.36 0.03 0.39 0.39 0.03 0.39 0.42 0.03 0.39 0.45 0.03 0.39 0.49 0.03 0.39 0.51 0.03 0.39 0.55 0.03 0.39 0.58 0.03 0.39 0.61 0.03 0.39 0.64 0.03 0.39 0.67 0.03 0.39 0.70 0.03 0.39 0.74 0.03 0.39 0.76 0.03 0.39 0.80 0.03 0.39 0.83 0.03 0.39 0.86 0.03 0.39 0.89 0.03 0.39 0.92 0.03 0.39 0.95 0.03 0.39 0.99 0.03 0.42 0.01 0.03 0.42 0.05 0.03 0.42 0.08 0.03 0.42 0.11 0.03 0.42 0.14 0.03 0.42 0.17 0.03 0.42 0.20 0.03 0.42 0.24 0.03 0.42 0.26 0.03 0.42 0.30 0.03 0.42 0.33 0.03 0.42 0.36 0.03 0.42 0.39 0.03 0.42 0.42 0.03 0.42 0.45 0.03 0.42 0.49 0.03 0.42 0.51 0.03 0.42 0.55 0.03 0.42 0.58 0.03 0.42 0.61 0.03 0.42 0.64 0.03 0.42 0.67 0.03 0.42 0.70 0.03 0.42 0.74 0.03 0.42 0.76 0.03 0.42 0.80 0.03 0.42 0.83 0.03 0.42 0.86 0.03 0.42 0.89 0.03 0.42 0.92 0.03 0.42 0.95 0.03 0.42 0.99 0.03 0.45 0.01 0.03 0.45 0.05 0.03 0.45 0.08 0.03 0.45 0.11 0.03 0.45 0.14 0.03 0.45 0.17 0.03 0.45 0.20 0.03 0.45 0.24 0.03 0.45 0.26 0.03 0.45 0.30 0.03 0.45 0.33 0.03 0.45 0.36 0.03 0.45 0.39 0.03 0.45 0.42 0.03 0.45 0.45 0.03 0.45 0.49 0.03 0.45 0.51 0.03 0.45 0.55 0.03 0.45 0.58 0.03 0.45 0.61 0.03 0.45 0.64 0.03 0.45 0.67 0.03 0.45 0.70 0.03 0.45 0.74 0.03 0.45 0.76 0.03 0.45 0.80 0.03 0.45 0.83 0.03 0.45 0.86 0.03 0.45 0.89 0.03 0.45 0.92 0.03 0.45 0.95 0.03 0.45 0.99 0.03 0.49 0.01 0.03 0.49 0.05 0.03 0.49 0.08 0.03 0.49 0.11 0.03 0.49 0.14 0.03 0.49 0.17 0.03 0.49 0.20 0.03 0.49 0.24 0.03 0.49 0.26 0.03 0.49 0.30 0.03 0.49 0.33 0.03 0.49 0.36 0.03 0.49 0.39 0.03 0.49 0.42 0.03 0.49 0.45 0.03 0.49 0.49 0.03 0.49 0.51 0.03 0.49 0.55 0.03 0.49 0.58 0.03 0.49 0.61 0.03 0.49 0.64 0.03 0.49 0.67 0.03 0.49 0.70 0.03 0.49 0.74 0.03 0.49 0.76 0.03 0.49 0.80 0.03 0.49 0.83 0.03 0.49 0.86 0.03 0.49 0.89 0.03 0.49 0.92 0.03 0.49 0.95 0.03 0.49 0.99 0.03 0.51 0.01 0.03 0.51 0.05 0.03 0.51 0.08 0.03 0.51 0.11 0.03 0.51 0.14 0.03 0.51 0.17 0.03 0.51 0.20 0.03 0.51 0.24 0.03 0.51 0.26 0.03 0.51 0.30 0.03 0.51 0.33 0.03 0.51 0.36 0.03 0.51 0.39 0.03 0.51 0.42 0.03 0.51 0.45 0.03 0.51 0.49 0.03 0.51 0.51 0.03 0.51 0.55 0.03 0.51 0.58 0.03 0.51 0.61 0.03 0.51 0.64 0.03 0.51 0.67 0.03 0.51 0.70 0.03 0.51 0.74 0.03 0.51 0.76 0.03 0.51 0.80 0.03 0.51 0.83 0.03 0.51 0.86 0.03 0.51 0.89 0.03 0.51 0.92 0.03 0.51 0.95 0.03 0.51 0.99 0.03 0.55 0.01 0.03 0.55 0.05 0.03 0.55 0.08 0.03 0.55 0.11 0.03 0.55 0.14 0.03 0.55 0.17 0.03 0.55 0.20 0.03 0.55 0.24 0.03 0.55 0.26 0.03 0.55 0.30 0.03 0.55 0.33 0.03 0.55 0.36 0.03 0.55 0.39 0.03 0.55 0.42 0.03 0.55 0.45 0.03 0.55 0.49 0.03 0.55 0.51 0.03 0.55 0.55 0.03 0.55 0.58 0.03 0.55 0.61 0.03 0.55 0.64 0.03 0.55 0.67 0.03 0.55 0.70 0.03 0.55 0.74 0.03 0.55 0.76 0.03 0.55 0.80 0.03 0.55 0.83 0.03 0.55 0.86 0.03 0.55 0.89 0.03 0.55 0.92 0.03 0.55 0.95 0.03 0.55 0.99 0.03 0.58 0.01 0.03 0.58 0.05 0.03 0.58 0.08 0.03 0.58 0.11 0.03 0.58 0.14 0.03 0.58 0.17 0.03 0.58 0.20 0.03 0.58 0.24 0.03 0.58 0.26 0.03 0.58 0.30 0.03 0.58 0.33 0.03 0.58 0.36 0.03 0.58 0.39 0.03 0.58 0.42 0.03 0.58 0.45 0.03 0.58 0.49 0.03 0.58 0.51 0.03 0.58 0.55 0.03 0.58 0.58 0.03 0.58 0.61 0.03 0.58 0.64 0.03 0.58 0.67 0.03 0.58 0.70 0.03 0.58 0.74 0.03 0.58 0.76 0.03 0.58 0.80 0.03 0.58 0.83 0.03 0.58 0.86 0.03 0.58 0.89 0.03 0.58 0.92 0.03 0.58 0.95 0.03 0.58 0.99 0.03 0.61 0.01 0.03 0.61 0.05 0.03 0.61 0.08 0.03 0.61 0.11 0.03 0.61 0.14 0.03 0.61 0.17 0.03 0.61 0.20 0.03 0.61 0.24 0.03 0.61 0.26 0.03 0.61 0.30 0.03 0.61 0.33 0.03 0.61 0.36 0.03 0.61 0.39 0.03 0.61 0.42 0.03 0.61 0.45 0.03 0.61 0.49 0.03 0.61 0.51 0.03 0.61 0.55 0.03 0.61 0.58 0.03 0.61 0.61 0.03 0.61 0.64 0.03 0.61 0.67 0.03 0.61 0.70 0.03 0.61 0.74 0.03 0.61 0.76 0.03 0.61 0.80 0.03 0.61 0.83 0.03 0.61 0.86 0.03 0.61 0.89 0.03 0.61 0.92 0.03 0.61 0.95 0.03 0.61 0.99 0.03 0.64 0.01 0.03 0.64 0.05 0.03 0.64 0.08 0.03 0.64 0.11 0.03 0.64 0.14 0.03 0.64 0.17 0.03 0.64 0.20 0.03 0.64 0.24 0.03 0.64 0.26 0.03 0.64 0.30 0.03 0.64 0.33 0.03 0.64 0.36 0.03 0.64 0.39 0.03 0.64 0.42 0.03 0.64 0.45 0.03 0.64 0.49 0.03 0.64 0.51 0.03 0.64 0.55 0.03 0.64 0.58 0.03 0.6
[...]
POINT_DATA 32768
SCALARS sol float
LOOKUP_TABLE default
0.04 -0.01 0.00 0.00 0.00 0.00 0.00 0.00 0.00 0.00 0.00 0.00 0.00 0.00 0.00 0.00 0.00 0.00 0.00 0.00 0.00 0.00 0.00 0.00 0.00 0.00 0.00 0.00 0.00 0.00 0.00 0.00 0.14 -0.04 0.00 0.00 0.00 0.00 0.00 0.00 0.00 0.00 0.00 0.00 0.00 0.00 0.00 0.00 0.00 0.00 0.00 0.00 0.00 0.00 0.00 0.00 0.00 0.00 0.00 0.00 0.00 0.00 0.00 0.00 0.21 -0.06 0.00 0.00 0.00 0.00 0.00 0.00 0.00 0.00 0.00 0.00 0.00 0.00 0.00 0.00 0.00 0.00 0.00 0.00 0.00 0.00 0.00 0.00 0.00 0.00 0.00 0.00 0.00 0.00 0.00 0.00 0.31 -0.08 0.00 0.00 0.00 0.00 0.00 0.00 0.00 0.00 0.00 0.00 0.00 0.00 0.00 0.00 0.00 0.00 0.00 0.00 0.00 0.00 0.00 0.00 0.00 0.00 0.00 0.00 0.00 0.00 0.00 0.00 0.38 -0.10 0.00 0.00 0.00 0.00 0.00 0.00 0.00 0.00 0.00 0.00 0.00 0.00 0.00 0.00 0.00 0.00 0.00 0.00 0.00 0.00 0.00 0.00 0.00 0.00 0.00 0.00 0.00 0.00 0.00 0.00 0.47 -0.13 0.00 0.00 0.00 0.00 0.00 0.00 0.00 0.00 0.00 0.00 0.00 0.00 0.00 0.00 0.00 0.00 0.00 0.00 0.00 0.00 0.00 0.00 0.00 0.00 0.00 0.00 0.00 0.00 0.00 0.00 0.53 -0.14 0.00 0.00 0.00 0.00 0.00 0.00 0.00 0.00 0.00 0.00 0.00 0.00 0.00 0.00 0.00 0.00 0.00 0.00 0.00 0.00 0.00 0.00 0.00 0.00 0.00 0.00 0.00 0.00 0.00 0.00 0.61 -0.16 0.00 0.00 0.00 0.00 0.00 0.00 0.00 0.00 0.00 0.00 0.00 0.00 0.00 0.00 0.00 0.00 0.00 0.00 0.00 0.00 0.00 0.00 0.00 0.00 0.00 0.00 0.00 0.00 0.00 0.00 0.67 -0.18 0.00 0.00 0.00 0.00 0.00 0.00 0.00 0.00 0.00 0.00 0.00 0.00 0.00 0.00 0.00 0.00 0.00 0.00 0.00 0.00 0.00 0.00 0.00 0.00 0.00 0.00 0.00 0.00 0.00 0.00 0.73 -0.20 0.00 0.00 0.00 0.00 0.00 0.00 0.00 0.00 0.00 0.00 0.00 0.00 0.00 0.00 0.00 0.00 0.00 0.00 0.00 0.00 0.00 0.00 0.00 0.00 0.00 0.00 0.00 0.00 0.00 0.00 0.77 -0.21 0.00 0.00 0.00 0.00 0.00 0.00 0.00 0.00 0.00 0.00 0.00 0.00 0.00 0.00 0.00 0.00 0.00 0.00 0.00 0.00 0.00 0.00 0.00 0.00 0.00 0.00 0.00 0.00 0.00 0.00 0.82 -0.22 0.00 0.00 0.00 0.00 0.00 0.00 0.00 0.00 0.00 0.00 0.00 0.00 0.00 0.00 0.00 0.00 0.00 0.00 0.00 0.00 0.00 0.00 0.00 0.00 0.00 0.00 0.00 0.00 0.00 0.00 0.85 -0.23 0.00 0.00 0.00 0.00 0.00 0.00 0.00 0.00 0.00 0.00 0.00 0.00 0.00 0.00 0.00 0.00 0.00 0.00 0.00 0.00 0.00 0.00 0.00 0.00 0.00 0.00 0.00 0.00 0.00 0.00 0.88 -0.24 0.00 0.00 0.00 0.00 0.00 0.00 0.00 0.00 0.00 0.00 0.00 0.00 0.00 0.00 0.00 0.00 0.00 0.00 0.00 0.00 0.00 0.00 0.00 0.00 0.00 0.00 0.00 0.00 0.00 0.00 0.90 -0.24 0.00 0.00 0.00 0.00 0.00 0.00 0.00 0.00 0.00 0.00 0.00 0.00 0.00 0.00 0.00 0.00 0.00 0.00 0.00 0.00 0.00 0.00 0.00 0.00 0.00 0.00 0.00 0.00 0.00 0.00 0.91 -0.24 0.00 0.00 0.00 0.00 0.00 0.00 0.00 0.00 0.00 0.00 0.00 0.00 0.00 0.00 0.00 0.00 0.00 0.00 0.00 0.00 0.00 0.00 0.00 0.00 0.00 0.00 0.00 0.00 0.00 0.00 0.91 -0.24 0.00 0.00 0.00 0.00 0.00 0.00 0.00 0.00 0.00 0.00 0.00 0.00 0.00 0.00 0.00 0.00 0.00 0.00 0.00 0.00 0.00 0.00 0.00 0.00 0.00 0.00 0.00 0.00 0.00 0.00 0.90 -0.24 0.00 0.00 0.00 0.00 0.00 0.00 0.00 0.00 0.00 0.00 0.00 0.00 0.00 0.00 0.00 0.00 0.00 0.00 0.00 0.00 0.00 0.00 0.00 0.00 0.00 0.00 0.00 0.00 0.00 0.00 0.88 -0.24 0.00 0.00 0.00 0.00 0.00 0.00 0.00 0.00 0.00 0.00 0.00 0.00 0.00 0.00 0.00 0.00 0.00 0.00 0.00 0.00 0.00 0.00 0.00 0.00 0.00 0.00 0.00 0.00 0.00 0.00 0.85 -0.23 0.00 0.00 0.00 0.00 0.00 0.00 0.00 0.00 0.00 0.00 0.00 0.00 0.00 0.00 0.00 0.00 0.00 0.00 0.00 0.00 0.00 0.00 0.00 0.00 0.00 0.00 0.00 0.00 0.00 0.00 0.82 -0.22 0.00 0.00 0.00 0.00 0.00 0.00 0.00 0.00 0.00 0.00 0.00 0.00 0.00 0.00 0.00 0.00 0.00 0.00 0.00 0.00 0.00 0.00 0.00 0.00 0.00 0.00 0.00 0.00 0.00 0.00 0.77 -0.21 0.00 0.00 0.00 0.00 0.00 0.00 0.00 0.00 0.00 0.00 0.00 0.00 0.00 0.00 0.00 0.00 0.00 0.00 0.00 0.00 0.00 0.00 0.00 0.00 0.00 0.00 0.00 0.00 0.00 0.00 0.73 -0.20 0.00 0.00 0.00 0.00 0.00 0.00 0.00 0.00 0.00 0.00 0.00 0.00 0.00 0.00 0.00 0.00 0.00 0.00 0.00 0.00 0.00 0.00 0.00 0.00 0.00 0.00 0.00 0.00 0.00 0.00 0.67 -0.18 0.00 0.00 0.00 0.00 0.00 0.00 0.00 0.00 0.00 0.00 0.00 0.00 0.00 0.00 0.00 0.00 0.00 0.00 0.00 0.00 0.00 0.00 0.00 0.00 0.00 0.00 0.00 0.00 0.00 0.00 0.61 -0.16 0.00 0.00 0.00 0.00 0.00 0.00 0.00 0.00 0.00 0.00 0.00 0.00 0.00 0.00 0.00 0.00 0.00 0.00 0.00 0.00 0.00 0.00 0.00 0.00 0.00 0.00 0.00 0.00 0.00 0.00 0.53 -0.14 0.00 0.00 0.00 0.00 0.00 0.00 0.00 0.00 0.00 0.00 0.00 0.00 0.00 0.00 0.00 0.00 0.00 0.00 0.00 0.00 0.00 0.00 0.00 0.00 0.00 0.00 0.00 0.00 0.00 0.00 0.47 -0.13 0.00 0.00 0.00 0.00 0.00 0.00 0.00 0.00 0.00 0.00 0.00 0.00 0.00 0.00 0.00 0.00 0.00 0.00 0.00 0.00 0.00 0.00 0.00 0.00 0.00 0.00 0.00 0.00 0.00 0.00 0.38 -0.10 0.00 0.00 0.00 0.00 0.00 0.00 0.00 0.00 0.00 0.00 0.00 0.00 0.00 0.00 0.00 0.00 0.00 0.00 0.00 0.00 0.00 0.00 0.00 0.00 0.00 0.00 0.00 0.00 0.00 0.00 0.31 -0.08 0.00 0.00 0.00 0.00 0.00 0.00 0.00 0.00 0.00 0.00 0.00 0.00 0.00 0.00 0.00 0.00 0.00 0.00 0.00 0.00 0.00 0.00 0.00 0.00 0.00 0.00 0.00 0.00 0.00 0.00 0.21 -0.06 0.00 0.00 0.00 0.00 0.00 0.00 0.00 0.00 0.00 0.00 0.00 0.00 0.00 0.00 0.00 0.00 0.00 0.00 0.00 0.00 0.00 0.00 0.00 0.00 0.00 0.00 0.00 0.00 0.00 0.00 0.14 -0.04 0.00 0.00 0.00 0.00 0.00 0.00 0.00 0.00 0.00 0.00 0.00 0.00 0.00 0.00 0.00 0.00 0.00 0.00 0.00 0.00 0.00 0.00 0.00 0.00 0.00 0.00 0.00 0.00 0.00 0.00 0.04 -0.01 0.00 0.00 0.00 0.00 0.00 0.00 0.00 0.00 0.00 0.00 0.00 0.00 0.00 0.00 0.00 0.00 0.00 0.00 0.00 0.00 0.00 0.00 0.00 0.00 0.00 0.00 0.00 0.00 0.00 0.00 0.14 -0.04 0.00 0.00 0.00 0.00 0.00 0.00 0.00 0.00 0.00 0.00 0.00 0.00 0.00 0.00 0.00 0.00 0.00 0.00 0.00 0.00 0.00 0.00 0.00 0.00 0.00 0.00 0.00 0.00 0.00 0.00 0.52 -0.14 0.00 0.00 0.00 0.00 0.00 0.00 0.00 0.00 0.00 0.00 0.00 0.00 0.00 0.00 0.00 0.00 0.00 0.00 0.00 0.00 0.00 0.00 0.00 0.00 0.00 0.00 0.00 0.00 0.00 0.00 0.79 -0.21 0.00 0.00 0.00 0.00 0.00 0.00 0.00 0.00 0.00 0.00 0.00 0.00 0.00 0.00 0.00 0.00 0.00 0.00 0.00 0.00 0.00 0.00 0.00 0.00 0.00 0.00 0.00 0.00 0.00 0.00 1.16 -0.31 0.00 0.00 0.00 0.00 0.00 0.00 0.00 0.00 0.00 0.00 0.00 0.00 0.00 0.00 0.00 0.00 0.00 0.00 0.00 0.00 0.00 0.00 0.00 0.00 0.00 0.00 0.00 0.00 0.00 0.00 1.42 -0.38 0.00 0.00 0.00 0.00 0.00 0.00 0.00 0.00 0.00 0.00 0.00 0.00 0.00 0.00 0.00 0.00 0.00 0.00 0.00 0.00 0.00 0.00 0.00 0.00 0.00 0.00 0.00 0.00 0.00 0.00 1.75 -0.47 0.00 0.00 0.00 0.00 0.00 0.00 0.00 0.00 0.00 0.00 0.00 0.00 0.00 0.00 0.00 0.00 0.00 0.00 0.00 0.00 0.00 0.00 0.00 0.00 0.00 0.00 0.00 0.00 0.00 0.00 1.99 -0.53 0.00 0.00 0.00 0.00 0.00 0.00 0.00 0.00 0.00 0.00 0.00 0.00 0.00 0.00 0.00 0.00 0.00 0.00 0.00 0.00 0.00 0.00 0.00 0.00 0.00 0.00 0.00 0.00 0.00 0.00 2.28 -0.61 0.00 0.00 0.00 0.00 0.00 0.00 0.00 0.00 0.00 0.00 0.00 0.00 0.00 0.00 0.00 0.00 0.00 0.00 0.00 0.00 0.00 0.00 0.00 0.00 0.00 0.00 0.00 0.00 0.00 0.00 2.48 -0.66 0.00 0.00 0.00 0.00 0.00 0.00 0.00 0.00 0.00 0.00 0.00 0.00 0.00 0.00 0.00 0.00 0.00 0.00 0.00 0.00 0.00 0.00 0.00 0.00 0.00 0.00 0.00 0.00 0.00 0.00 2.72 -0.73 0.00 0.00 0.00 0.00 0.00 0.00 0.00 0.00 0.00 0.00 0.00 0.00 0.00 0.00 0.00 0.00 0.00 0.00 0.00 0.00 0.00 0.00 0.00 0.00 0.00 0.00 0.00 0.00 0.00 0.00 2.88 -0.77 0.00 0.00 0.00 0.00 0.00 0.00 0.00 0.00 0.00 0.00 0.00 0.00 0.00 0.00 0.00 0.00 0.00 0.00 0.00 0.00 0.00 0.00 0.00 0.00 0.00 0.00 0.00 0.00 0.00 0.00 3.06 -0.82 0.00 0.00 0.00 0.00 0.00 0.00 0.00 0.00 0.00 0.00 0.00 0.00 0.00 0.00 0.00 0.00 0.00 0.00 0.00 0.00 0.00 0.00 0.00 0.00 0.00 0.00 0.00 0.00 0.00 0.00 3.16 -0.85 0.00 0.00 0.00 0.00 0.00 0.00 0.00 0.00 0.00 0.00 0.00 0.00 0.00 0.00 0.00 0.00 0.00 0.00 0.00 0.00 0.00 0.00 0.00 0.00 0.00 0.00 0.00 0.00 0.00 0.00 3.28 -0.88 0.00 0.00 0.00 0.00 0.00 0.00 0.00 0.00 0.00 0.00 0.00 0.00 0.00 0.00 0.00 0.00 0.00 0.00 0.00 0.00 0.00 0.00 0.00 0.00 0.00 0.00 0.00 0.00 0.00 0.00 3.33 -0.89 0.00 0.00 0.00 0.00 0.00 0.00 0.00 0.00 0.00 0.00 0.00 0.00 0.00 0.00 0.00 0.00 0.00 0.00 0.00 0.00 0.00 0.00 0.00 0.00 0.00 0.00 0.00 0.00 0.00 0.00 3.37 -0.90 0.00 0.00 0.00 0.00 0.00 0.00 0.00 0.00 0.00 0.00 0.00 0.00 0.00 0.00 0.00 0.00 0.00 0.00 0.00 0.00 0.00 0.00 0.00 0.00 0.00 0.00 0.00 0.00 0.00 0.00 3.37 -0.90 0.00 0.00 0.00 0.00 0.00 0.00 0.00 0.00 0.00 0.00 0.00 0.00 0.00 0.00 0.00 0.00 0.00 0.00 0.00 0.00 0.00 0.00 0.00 0.00 0.00 0.00 0.00 0.00 0.00 0.00 3.33 -0.89 0.00 0.00 0.00 0.00 0.00 0.00 0.00 0.00 0.00 0.00 0.00 0.00 0.00 0.00 0.00 0.00 0.00 0.00 0.00 0.00 0.00 0.00 0.00 0.00 0.00 0.00 0.00 0.00 0.00 0.00 3.28 -0.88 0.00 0.00 0.00 0.00 0.00 0.00 0.00 0.00 0.00 0.00 0.00 0.00 0.00 0.00 0.00 0.00 0.00 0.00 0.00 0.00 0.00 0.00 0.00 0.00 0.00 0.00 0.00 0.00 0.00 0.00 3.16 -0.85 0.00 0.00 0.00 0.00 0.00 0.00 0.00 0.00 0.00 0.00 0.00 0.00 0.00 0.00 0.00 0.00 0.00 0.00 0.00 0.00 0.00 0.00 0.00 0.00 0.00 0.00 0.00 0.00 0.00 0.00 3.06 -0.82 0.00 0.00 0.00 0.00 0.00 0.00 0.00 0.00 0.00 0.00 0.00 0.00 0.00 0.00 0.00 0.00 0.00 0.00 0.00 0.00 0.00 0.00 0.00 0.00 0.00 0.00 0.00 0.00 0.00 0.00 2.88 -0.77 0.00 0.00 0.00 0.00 0.00 0.00 0.00 0.00 0.00 0.00 0.00 0.00 0.00 0.00 0.00 0.00 0.00 0.00 0.00 0.00 0.00 0.00 0.00 0.00 0.00 0.00 0.00 0.00 0.00 0.00 2.72 -0.73 0.00 0.00 0.00 0.00 0.00 0.00 0.00 0.00 0.00 0.00 0.00 0.00 0.00 0.00 0.00 0.00 0.00 0.00 0.00 0.00 0.00 0.00 0.00 0.00 0.00 0.00 0.00 0.00 0.00 0.00 2.48 -0.66 0.00 0.00 0.00 0.00 0.00 0.00 0.00 0.00 0.00 0.00 0.00 0.00 0.00 0.00 0.00 0.00 0.00 0.00 0.00 0.00 0.00 0.00 0.00 0.00 0.00 0.00 0.00 0.00 0.00 0.00 2.28 -0.61 0.00 0.00 0.00 0.00 0.00 0.00 0.00 0.00 0.00 0.00 0.00 0.00 0.00 0.00 0.00 0.00 0.00 0.00 0.00 0.00 0.00 0.00 0.00 0.00 0.00 0.00 0.00 0.00 0.00 0.00 1.99 -0.53 0.00 0.00 0.00 0.00 0.00 0.00 0.00 0.00 0.00 0.00 0.00 0.00 0.00 0.00 0.00 0.00 0.00 0.00 0.00 0.00 0.00 0.00 0.00 0.00 0.00 0.00 0.00 0.00 0.00 0.00 1.75 -0.47 0.00 0.00 0.00 0.00 0.00 0.00 0.00 0.00 0.00 0.00 0.00 0.00 0.00 0.00 0.00 0.00 0.00 0.00 0.00 0.00 0.00 0.00 0.00 0.00 0.00 0.00 0.00 0.00 0.00 0.00 1.42 -0.38 0.00 0.00 0.00 0.00 0.00 0.00 0.00 0.00 0.00 0.00 0.00 0.00 0.00 0.00 0.00 0.00 0.00 0.00 0.00 0.00 0.00 0.00 0.00 0.00 0.00 0.00 0.00 0.00 0.00 0.00 1.16 -0.31 0.00 0.00 0.00 0.00 0.00 0.00 0.00 0.00 0.00 0.00 0.00 0.00 0.00 0.00 0.00 0.00 0.00 0.00 0.00 0.00 0.00 0.00 0.00 0.00 0.00 0.00 0.00 0.00 0.00 0.00 0.79 -0.21 0.00 0.00 0.00 0.00 0.00 0.00 0.00 0.00 0.00 0.00 0.00 0.00 0.00 0.00 0.00 0.00 0.00 0.00 0.00 0.00 0.00 0.00 0.00 0.00 0.00 0.00 0.00 0.00 0.00 0.00 0.52 -0.14 0.00 0.00 0.00 0.00 0.00 0.00 0.00 0.00 0.00 0.00 0.00 0.00 0.00 0.00 0.00 0.00 0.00 0.00 0.00 0.00 0.00 0.00 0.00 0.00 0.00 0.00 0.00 0.00 0.00 0.00 0.14 -0.04 0.00 0.00 0.00 0.00 0.00 0.00 0.00 0.00 0.00 0.00 0.00 0.00 0.00 0.00 0.00 0.00 0.00 0.00 0.00 0.00 0.00 0.00 0.00 0.00 0.00 0.00 0.00 0.00 0.00 0.00 0.21 -0.06 0.00 0.00 0.00 0.00 0.00 0.00 0.00 0.00 0.00 0.00 0.00 0.00 0.00 0.00 0.00 0.00 0.00 0.00 0.00 0.00 0.00 0.00 0.00 0.00 0.00 0.00 0.00 0.00 0.00 0.00 0.79 -0.21 0.00 0.00 0.00 0.00 0.00 0.00 0.00 0.00 0.00 0.00 0.00 0.00 0.00 0.00 0.00 0.00 0.00 0.00 0.00 0.00 0.00 0.00 0.00 0.00 0.00 0.00 0.00 0.00 0.00 0.00 1.21 -0.33 0.00 0.00 0.00 0.00 0.00 0.00 0.00 0.00 0.00 0.00 0.00 0.00 0.00 0.00 0.00 0.00 0.00 0.00 0.00 0.00 0.00 0.00 0.00 0.00 0.00 0.00 0.00 0.00 0.00 0.00 1.77 -0.47 0.00 0.00 0.00 0.00 0.00 0.00 0.00 0.00 0.00 0.00 0.00 0.00 0.00 0.00 0.00 0.00 0.00 0.00 0.00 0.00 0.00 0.00 0.00 0.00 0.00 0.00 0.00 0.00 0.00 0.00 2.17 -0.58 0.00 0.00 0.00 0.00 0.00 0.00 0.00 0.00 0.00 0.00 0.00 0.00 0.00 0.00 0.00 0.00 0.00 0.00 0.00 0.00 0.00 0.00 0.00 0.00 0.00 0.00 0.00 0.00 0.00 0.00 2.68 -0.72 0.00 0.00 0.00 0.00 0.00 0.00 0.00 0.00 0.00 0.00 0.00 0.00 0.00 0.00 0.00 0.00 0.00 0.00 0.00 0.00 0.00 0.00 0.00 0.00 0.00 0.00 0.00 0.00 0.00 0.00 3.04 -0.81 0.00 0.00 0.00 0.00 0.00 0.00 0.00 0.00 0.00 0.00 0.00 0.00 0.00 0.00 0.00 0.00 0.00 0.00 0.00 0.00 0.00 0.00 0.00 0.00 0.00 0.00 0.00 0.00 0.00 0.00 3.49 -0.93 0.00 0.00 0.00 0.00 0.00 0.00 0.00 0.00 0.00 0.00 0.00 0.00 0.00 0.00 0.00 0.00 0.00 0.00 0.00 0.00 0.00 0.00 0.00 0.00 0.00 0.00 0.00 0.00 0.00 0.00 3.79 -1.02 0.00 0.00 0.00 0.00 0.00 0.00 0.00 0.00 0.00 0.00 0.00 0.00 0.00 0.00 0.00 0.00 0.00 0.00 0.00 0.00 0.00 0.00 0.00 0.00 0.00 0.00 0.00 0.00 0.00 0.00 4.16 -1.11 0.00 0.00 0.00 0.00 0.00 0.00 0.00 0.00 0.00 0.00 0.00 0.00 0.00 0.00 0.00 0.00 0.00 0.00 0.00 0.00 0.00 0.00 0.00 0.00 0.00 0.00 0.00 0.00 0.00 0.00 4.40 -1.18 0.00 0.00 0.00 0.00 0.00 0.00 0.00 0.00 0.00 0.00 0.00 0.00 0.00 0.00 0.00 0.00 0.00 0.00 0.00 0.00 0.00 0.00 0.00 0.00 0.00 0.00 0.00 0.00 0.00 0.00 4.67 -1.25 0.00 0.00 0.00 0.00 0.00 0.00 0.00 0.00 0.00 0.00 0.00 0.00 0.00 0.00 0.00 0.00 0.00 0.00 0.00 0.00 0.00 0.00 0.00 0.00 0.00 0.00 0.00 0.00 0.00 0.00 4.84 -1.30 0.00 0.00 0.00 0.00 0.00 0.00 0.00 0.00 0.00 0.00 0.00 0.00 0.00 0.00 0.00 0.00 0.00 0.00 0.00 0.00 0.00 0.00 0.00 0.00 0.00 0.00 0.00 0.00 0.00 0.00 5.01 -1.34 0.00 0.00 0.00 0.00 0.00 0.00 0.00 0.00 0.00 0.00 0.00 0.00 0.00 0.00 0.00 0.00 0.00 0.00 0.00 0.00 0.00 0.00 0.00 0.00 0.00 0.00 0.00 0.00 0.00 0.00 5.09 -1.36 0.00 0.00 0.00 0.00 0.00 0.00 0.00 0.00 0.00 0.00 0.00 0.00 0.00 0.00 0.00 0.00 0.00 0.00 0.00 0.00 0.00 0.00 0.00 0.00 0.00 0.00 0.00 0.00 0.00 0.00 5.15 -1.38 0.00 0.00 0.00 0.00 0.00 0.00 0.00 0.00 0.00 0.00 0.00 0.00 0.00 0.00 0.00 0.00 0.00 0.00 0.00 0.00 0.00 0.00 0.00 0.00 0.00 0.00 0.00 0.00 0.00 0.00 5.15 -1.38 0.00 0.00 0.00 0.00 0.00 0.00 0.00 0.00 0.00 0.00 0.00 0.00 0.00 0.00 0.00 0.00 0.00 0.00 0.00 0.00 0.00 0.00 0.00 0.00 0.00 0.00 0.00 0.00 0.00 0.00 5.09 -1.36 0.00 0.00 0.00 0.00 0.00 0.00 0.00 0.00 0.00 0.00 0.00 0.00 0.00 0.00 0.00 0.00 0.00 0.00 0.00 0.00 0.00 0.00 0.00 0.00 0.00 0.00 0.00 0.00 0.00 0.00 5.01 -1.34 0.00 0.00 0.00 0.00 0.00 0.00 0.00 0.00 0.00 0.00 0.00 0.00 0.00 0.00 0.00 0.00 0.00 0.00 0.00 0.00 0.00 0.00 0.00 0.00 0.00 0.00 0.00 0.00 0.00 0.00 4.84 -1.30 0.00 0.00 0.00 0.00 0.00 0.00 0.00 0.00 0.00 0.00 0.00 0.00 0.00 0.00 0.00 0.00 0.00 0.00 0.00 0.00 0.00 0.00 0.00 0.00 0.00 0.00 0.00 0.00 0.00 0.00 4.67 -1.25 0.00 0.00 0.00 0.00 0.00 0.00 0.00 0.00 0.00 0.00 0.00 0.00 0.00 0.00 0.00 0.00 0.00 0.00 0.00 0.00 0.00 0.00 0.00 0.00 0.00 0.00 0.00 0.00 0.00 0.00 4.40 -1.18 0.00 0.00 0.00 0.00 0.00 0.00 0.00 0.00 0.00 0.00 0.00 0.00 0.00 0.00 0.00 0.00 0.00 0.00 0.00 0.00 0.00 0.00 0.00 0.00 0.00 0.00 0.00 0.00 0.00 0.00 4.16 -1.11 0.00 0.00 0.00 0.00 0.00 0.00 0.00 0.00 0.00 0.00 0.00 0.00 0.00 0.00 0.00 0.00 0.00 0.00 0.00 0.00 0.00 0.00 0.00 0.00 0.00 0.00 0.00 0.00 0.00 0.00 3.79 -1.02 0.00 0.00 0.00 0.00 0.00 0.00 0.00 0.00 0.00 0.00 0.00 0.00 0.00 0.00 0.00 0.00 0.00 0.00 0.00 0.00 0.00 0.00 0.00 0.00 0.00 0.00 0.00 0.00 0.00 0.00 3.49 -0.93 0.00 0.00 0.00 0.00 0.00 0.00 0.00 0.00 0.00 0.00 0.00 0.00 0.00 0.00 0.00 0.00 0.00 0.00 0.00 0.00 0.00 0.00 0.00 0.00 0.00 0.00 0.00 0.00 0.00 0.00 3.04 -0.81 0.00 0.00 0.00 0.00 0.00 0.00 0.00 0.00 0.00 0.00 0.00 0.00 0.00 0.00 0.00 0.00 0.00 0.00 0.00 0.00 0.00 0.00 0.00 0.00 0.00 0.00 0.00 0.00 0.00 0.00 2.68 -0.72 0.00 0.00 0.00 0.00 0.00 0.00 0.00 0.00 0.00 0.00 0.00 0.00 0.00 0.00 0.00 0.00 0.00 0.00 0.00 0.00 0.00 0.00 0.00 0.00 0.00 0.00 0.00 0.00 0.00 0.00 2.17 -0.58 0.00 0.00 0.00 0.00 0.00 0.00 0.00 0.00 0.00 0.00 0.00 0.00 0.00 0.00 0.00 0.00 0.00 0.00 0.00 0.00 0.00 0.00 0.00 0.00 0.00 0.00 0.00 0.00 0.00 0.00 1.77 -0.47 0.00 0.00 0.00 0.00 0.00 0.00 0.00 0.00 0.00 0.00 0.00 0.00 0.00 0.00 0.00 0.00 0.00 0.00 0.00 0.00 0.00 0.00 0.00 0.00 0.00 0.00 0.00 0.00 0.00 0.00 1.21 -0.33 0.00 0.00 0.00 0.00 0.00 0.00 0.00 0.00 0.00 0.00 0.00 0.00 0.00 0.00 0.00 0.00 0.00 0.00 0.00 0.00 0.00 0.00 0.00 0.00 0.00 0.00 0.00 0.00 0.00 0.00 0.79 -0.21 0.00 0.00 0.00 0.00 0.00 0.00 0.00 0.00 0.00 0.00 0.00 0.00 0.00 0.00 0.00 0.00 0.00 0.00 0.00 0.00 0.00 0.00 0.00 0.00 0.00 0.00 0.00 0.00 0.00 0.00 0.21 -0.06 0.00 0.00 0.00 0.00 0.00 0.00 0.00 0.00 0.00 0.00 0.00 0.00 0.00 0.00 0.00 0.00 0.00 0.00 0.00 0.00 0.00 0.00 0.00 0.00 0.00 0.00 0.00 0.00 0.00 0.00 0.31 -0.08 0.00 0.00 0.00 0.00 0.00 0.00 0.00 0.00 0.00 0.00 0.00 0.00 0.00 0.00 0.00 0.00 0.00 0.00 0.00 0.00 0.00 0.00 0.00 0.00 0.00 0.00 0.00 0.00 0.00 0.00 1.16 -0.31 0.00 0.00 0.00 0.00 0.00 0.00 0.00 0.00 0.00 0.00 0.00 0.00 0.00 0.00 0.00 0.00 0.00 0.00 0.00 0.00 0.00 0.00 0.00 0.00 0.00 0.00 0.00 0.00 0.00 0.00 1.77 -0.47 0.00 0.00 0.00 0.00 0.00 0.00 0.00 0.00 0.00 0.00 0.00 0.00 0.00 0.00 0.00 0.00 0.00 0.00 0.00 0.00 0.00 0.00 0.00 0.00 0.00 0.00 0.00 0.00 0.00 0.00 2.59 -0.69 0.00 0.00 0.00 0.00 0.00 0.00 0.00 0.00 0.00 0.00 0.00 0.00 0.00 0.00 0.00 0.00 0.00 0.00 0.00 0.00 0.00 0.00 0.00 0.00 0.00 0.00 0.00 0.00 0.00 0.00 3.16 -0.85 0.00 0.00 0.00 0.00 0.00 0.00 0.00 0.00 0.00 0.00 0.00 0.00 0.00 0.00 0.00 0.00 0.00 0.00 0.00 0.00 0.00 0.00 0.00 0.00 0.00 0.00 0.00 0.00 0.00 0.00 3.91 -1.05 0.00 0.00 0.00 0.00 0.00 0.00 0.00 0.00 0.00 0.00 0.00 0.00 0.00 0.00 0.00 0.00 0.00 0.00 0.00 0.00 0.00 0.00 0.00 0.00 0.00 0.00 0.00 0.00 0.00 0.00 4.43 -1.19 0.00 0.00 0.00 0.00 0.00 0.00 0.00 0.00 0.00 0.00 0.00 0.00 0.00 0.00 0.00 0.00 0.00 0.00 0.00 0.00 0.00 0.00 0.00 0.00 0.00 0.00 0.00 0.00 0.00 0.00 5.09 -1.36 0.00 0.00 0.00 0.00 0.00 0.00 0.00 0.00 0.00 0.00 0.00 0.00 0.00 0.00 0.00 0.00 0.00 0.00 0.00 0.00 0.00 0.00 0.00 0.00 0.00 0.00 0.00 0.00 0.00 0.00 5.53 -1.48 0.00 0.00 0.00 0.00 0.00 0.00 0.00 0.00 0.00 0.00 0.00 0.00 0.00 0.00 0.00 0.00 0.00 0.00 0.00 0.00 0.00 0.00 0.00 0.00 0.00 0.00 0.00 0.00 0.00 0.00 6.07 -1.63 0.00 0.00 0.00 0.00 0.00 0.00 0.00 0.00 0.00 0.00 0.00 0.00 0.00 0.00 0.00 0.00 0.00 0.00 0.00 0.00 0.00 0.00 0.00 0.00 0.00 0.00 0.00 0.00 0.00 0.00 6.42 -1.72 0.00 0.00 0.00 0.00 0.00 0.00 0.00 0.00 0.00 0.00 0.00 0.00 0.00 0.00 0.00 0.00 0.00 0.00 0.00 0.00 0.00 0.00 0.00 0.00 0.00 0.00 0.00 0.00 0.00 0.00 6.82 -1.83 0.00 0.00 0.00 0.00 0.00 0.00 0.00 0.00 0.00 0.00 0.00 0.00 0.00 0.00 0.00 0.00 0.00 0.00 0.00 0.00 0.00 0.00 0.00 0.00 0.00 0.00 0.00 0.00 0.00 0.00 7.06 -1.89 0.00 0.00 0.00 0.00 0.00 0.00 0.00 0.00 0.00 0.00 0.00 0.00 0.00 0.00 0.00 0.00 0.00 0.00 0.00 0.00 0.00 0.00 0.00 0.00 0.00 0.00 0.00 0.00 0.00 0.00 7.31 -1.96 0.00 0.00 0.00 0.00 0.00 0.00 0.00 0.00 0.00 0.00 0.00 0.00 0.00 0.00 0.00 0.00 0.00 0.00 0.00 0.00 0.00 0.00 0.00 0.00 0.00 0.00 0.00 0.00 0.00 0.00 7.43 -1.99 0.00 0.00 0.00 0.00 0.00 0.00 0.00 0.00 0.00 0.00 0.00 0.00 0.00 0.00 0.00 0.00 0.00 0.00 0.00 0.00 0.00 0.00 0.00 0.00 0.00 0.00 0.00 0.00 0.00 0.00 7.51 -2.01 0.00 0.00 0.00 0.00 0.00 0.00 0.00 0.00 0.00 0.00 0.00 0.00 0.00 0.00 0.00 0.00 0.00 0.00 0.00 0.00 0.00 0.00 0.00 0.00 0.00 0.00 0.00 0.00 0.00 0.00 7.51 -2.01 0.00 0.00 0.00 0.00 0.00 0.00 0.00 0.00 0.00 0.00 0.00 0.00 0.00 0.00 0.00 0.00 0.00 0.00 0.00 0.00 0.00 0.00 0.00 0.00 0.00 0.00 0.00 0.00 0.00 0.00 7.43 -1.99 0.00 0.00 0.00 0.00 0.00 0.00 0.00 0.00 0.00 0.00 0.00 0.00 0.00 0.00 0.00 0.00 0.00 0.00 0.00 0.00 0.00 0.00 0.00 0.00 0.00 0.00 0.00 0.00 0.00 0.00 7.31 -1.96 0.00 0.00 0.00 0.00 0.00 0.00 0.00 0.00 0.00 0.00 0.00 0.00 0.00 0.00 0.00 0.00 0.00 0.00 0.00 0.00 0.00 0.00 0.00 0.00 0.00 0.00 0.00 0.00 0.00 0.00 7.06 -1.89 0.00 0.00 0.00 0.00 0.00 0.00 0.00 0.00 0.00 0.00 0.00 0.00 0.00 0.00 0.00 0.00 0.00 0.00 0.00 0.00 0.00 0.00 0.00 0.00 0.00 0.00 0.00 0.00 0.00 0.00 6.82 -1.83 0.00 0.00 0.00 0.00 0.00 0.00 0.00 0.00 0.00 0.00 0.00 0.00 0.00 0.00 0.00 0.00 0.00 0.00 0.00 0.00 0.00 0.00 0.00 0.00 0.00 0.00 0.00 0.00 0.00 0.00 6.42 -1.72 0.00 0.00 0.00 0.00 0.00 0.00 0.00 0.00 0.00 0.00 0.00 0.00 0.00 0.00 0.00 0.00 0.00 0.00 0.00 0.00 0.00 0.00 0.00 0.00 0.00 0.00 0.00 0.00 0.00 0.00 6.07 -1.63 0.00 0.00 0.00 0.00 0.00 0.00 0.00 0.00 0.00 0.00 0.00 0.00 0.00 0.00 0.00 0.00 0.00 0.00 0.00 0.00 0.00 0.00 0.00 0.00 0.00 0.00 0.00 0.00 0.00 0.00 5.53 -1.48 0.00 0.00 0.00 0.00 0.00 0.00 0.00 0.00 0.00 0.00 0.00 0.00 0.00 0.00 0.00 0.00 0.00 0.00 0.00 0.00 0.00 0.00 0.00 0.00 0.00 0.00 0.00 0.00 0.00 0.00 5.09 -1.36 0.00 0.00 0.00 0.00 0.00 0.00 0.00 0.00 0.00 0.00 0.00 0.00 0.00 0.00 0.00 0.00 0.00 0.00 0.00 0.00 0.00 0.00 0.00 0.00 0.00 0.00 0.00 0.00 0.00 0.00 4.43 -1.19 0.00 0.00 0.00 0.00 0.00 0.00 0.00 0.00 0.00 0.00 0.00 0.00 0.00 0.00 0.00 0.00 0.00 0.00 0.00 0.00 0.00 0.00 0.00 0.00 0.00 0.00 0.00 0.00 0.00 0.00 3.91 -1.05 0.00 0.00 0.00 0.00 0.00 0.00 0.00 0.00 0.00 0.00 0.00 0.00 0.00 0.00 0.00 0.00 0.00 0.00 0.00 0.00 0.00 0.00 0.00 0.00 0.00 0.00 0.00 0.00 0.00 0.00 3.16 -0.85 0.00 0.00 0.00 0.00 0.00 0.00 0.00 0.00 0.00 0.00 0.00 0.00 0.00 0.00 0.00 0.00 0.00 0.00 0.00 0.00 0.00 0.00 0.00 0.00 0.00 0.00 