# vtk DataFile Version 2.0
VTK from Matlab
ASCII
DATASET STRUCTURED_GRID
DIMENSIONS 32 32 32
POINTS 32768 float
0.01 0.01 0.01 0.01 0.05 0.01 0.01 0.08 0.01 0.01 0.11 0.01 0.01 0.14 0.01 0.01 0.17 0.01 0.01 0.20 0.01 0.01 0.24 0.01 0.01 0.26 0.01 0.01 0.30 0.01 0.01 0.33 0.01 0.01 0.36 0.01 0.01 0.39 0.01 0.01 0.42 0.01 0.01 0.45 0.01 0.01 0.49 0.01 0.01 0.51 0.01 0.01 0.55 0.01 0.01 0.58 0.01 0.01 0.61 0.01 0.01 0.64 0.01 0.01 0.67 0.01 0.01 0.70 0.01 0.01 0.74 0.01 0.01 0.76 0.01 0.01 0.80 0.01 0.01 0.83 0.01 0.01 0.86 0.01 0.01 0.89 0.01 0.01 0.92 0.01 0.01 0.95 0.01 0.01 0.99 0.01 0.05 0.01 0.01 0.05 0.05 0.01 0.05 0.08 0.01 0.05 0.11 0.01 0.05 0.14 0.01 0.05 0.17 0.01 0.05 0.20 0.01 0.05 0.24 0.01 0.05 0.26 0.01 0.05 0.30 0.01 0.05 0.33 0.01 0.05 0.36 0.01 0.05 0.39 0.01 0.05 0.42 0.01 0.05 0.45 0.01 0.05 0.49 0.01 0.05 0.51 0.01 0.05 0.55 0.01 0.05 0.58 0.01 0.05 0.61 0.01 0.05 0.64 0.01 0.05 0.67 0.01 0.05 0.70 0.01 0.05 0.74 0.01 0.05 0.76 0.01 0.05 0.80 0.01 0.05 0.83 0.01 0.05 0.86 0.01 0.05 0.89 0.01 0.05 0.92 0.01 0.05 0.95 0.01 0.05 0.99 0.01 0.08 0.01 0.01 0.08 0.05 0.01 0.08 0.08 0.01 0.08 0.11 0.01 0.08 0.14 0.01 0.08 0.17 0.01 0.08 0.20 0.01 0.08 0.24 0.01 0.08 0.26 0.01 0.08 0.30 0.01 0.08 0.33 0.01 0.08 0.36 0.01 0.08 0.39 0.01 0.08 0.42 0.01 0.08 0.45 0.01 0.08 0.49 0.01 0.08 0.51 0.01 0.08 0.55 0.01 0.08 0.58 0.01 0.08 0.61 0.01 0.08 0.64 0.01 0.08 0.67 0.01 0.08 0.70 0.01 0.08 0.74 0.01 0.08 0.76 0.01 0.08 0.80 0.01 0.08 0.83 0.01 0.08 0.86 0.01 0.08 0.89 0.01 0.08 0.92 0.01 0.08 0.95 0.01 0.08 0.99 0.01 0.11 0.01 0.01 0.11 0.05 0.01 0.11 0.08 0.01 0.11 0.11 0.01 0.11 0.14 0.01 0.11 0.17 0.01 0.11 0.20 0.01 0.11 0.24 0.01 0.11 0.26 0.01 0.11 0.30 0.01 0.11 0.33 0.01 0.11 0.36 0.01 0.11 0.39 0.01 0.11 0.42 0.01 0.11 0.45 0.01 0.11 0.49 0.01 0.11 0.51 0.01 0.11 0.55 0.01 0.11 0.58 0.01 0.11 0.61 0.01 0.11 0.64 0.01 0.11 0.67 0.01 0.11 0.70 0.01 0.11 0.74 0.01 0.11 0.76 0.01 0.11 0.80 0.01 0.11 0.83 0.01 0.11 0.86 0.01 0.11 0.89 0.01 0.11 0.92 0.01 0.11 0.95 0.01 0.11 0.99 0.01 0.14 0.01 0.01 0.14 0.05 0.01 0.14 0.08 0.01 0.14 0.11 0.01 0.14 0.14 0.01 0.14 0.17 0.01 0.14 0.20 0.01 0.14 0.24 0.01 0.14 0.26 0.01 0.14 0.30 0.01 0.14 0.33 0.01 0.14 0.36 0.01 0.14 0.39 0.01 0.14 0.42 0.01 0.14 0.45 0.01 0.14 0.49 0.01 0.14 0.51 0.01 0.14 0.55 0.01 0.14 0.58 0.01 0.14 0.61 0.01 0.14 0.64 0.01 0.14 0.67 0.01 0.14 0.70 0.01 0.14 0.74 0.01 0.14 0.76 0.01 0.14 0.80 0.01 0.14 0.83 0.01 0.14 0.86 0.01 0.14 0.89 0.01 0.14 0.92 0.01 0.14 0.95 0.01 0.14 0.99 0.01 0.17 0.01 0.01 0.17 0.05 0.01 0.17 0.08 0.01 0.17 0.11 0.01 0.17 0.14 0.01 0.17 0.17 0.01 0.17 0.20 0.01 0.17 0.24 0.01 0.17 0.26 0.01 0.17 0.30 0.01 0.17 0.33 0.01 0.17 0.36 0.01 0.17 0.39 0.01 0.17 0.42 0.01 0.17 0.45 0.01 0.17 0.49 0.01 0.17 0.51 0.01 0.17 0.55 0.01 0.17 0.58 0.01 0.17 0.61 0.01 0.17 0.64 0.01 0.17 0.67 0.01 0.17 0.70 0.01 0.17 0.74 0.01 0.17 0.76 0.01 0.17 0.80 0.01 0.17 0.83 0.01 0.17 0.86 0.01 0.17 0.89 0.01 0.17 0.92 0.01 0.17 0.95 0.01 0.17 0.99 0.01 0.20 0.01 0.01 0.20 0.05 0.01 0.20 0.08 0.01 0.20 0.11 0.01 0.20 0.14 0.01 0.20 0.17 0.01 0.20 0.20 0.01 0.20 0.24 0.01 0.20 0.26 0.01 0.20 0.30 0.01 0.20 0.33 0.01 0.20 0.36 0.01 0.20 0.39 0.01 0.20 0.42 0.01 0.20 0.45 0.01 0.20 0.49 0.01 0.20 0.51 0.01 0.20 0.55 0.01 0.20 0.58 0.01 0.20 0.61 0.01 0.20 0.64 0.01 0.20 0.67 0.01 0.20 0.70 0.01 0.20 0.74 0.01 0.20 0.76 0.01 0.20 0.80 0.01 0.20 0.83 0.01 0.20 0.86 0.01 0.20 0.89 0.01 0.20 0.92 0.01 0.20 0.95 0.01 0.20 0.99 0.01 0.24 0.01 0.01 0.24 0.05 0.01 0.24 0.08 0.01 0.24 0.11 0.01 0.24 0.14 0.01 0.24 0.17 0.01 0.24 0.20 0.01 0.24 0.24 0.01 0.24 0.26 0.01 0.24 0.30 0.01 0.24 0.33 0.01 0.24 0.36 0.01 0.24 0.39 0.01 0.24 0.42 0.01 0.24 0.45 0.01 0.24 0.49 0.01 0.24 0.51 0.01 0.24 0.55 0.01 0.24 0.58 0.01 0.24 0.61 0.01 0.24 0.64 0.01 0.24 0.67 0.01 0.24 0.70 0.01 0.24 0.74 0.01 0.24 0.76 0.01 0.24 0.80 0.01 0.24 0.83 0.01 0.24 0.86 0.01 0.24 0.89 0.01 0.24 0.92 0.01 0.24 0.95 0.01 0.24 0.99 0.01 0.26 0.01 0.01 0.26 0.05 0.01 0.26 0.08 0.01 0.26 0.11 0.01 0.26 0.14 0.01 0.26 0.17 0.01 0.26 0.20 0.01 0.26 0.24 0.01 0.26 0.26 0.01 0.26 0.30 0.01 0.26 0.33 0.01 0.26 0.36 0.01 0.26 0.39 0.01 0.26 0.42 0.01 0.26 0.45 0.01 0.26 0.49 0.01 0.26 0.51 0.01 0.26 0.55 0.01 0.26 0.58 0.01 0.26 0.61 0.01 0.26 0.64 0.01 0.26 0.67 0.01 0.26 0.70 0.01 0.26 0.74 0.01 0.26 0.76 0.01 0.26 0.80 0.01 0.26 0.83 0.01 0.26 0.86 0.01 0.26 0.89 0.01 0.26 0.92 0.01 0.26 0.95 0.01 0.26 0.99 0.01 0.30 0.01 0.01 0.30 0.05 0.01 0.30 0.08 0.01 0.30 0.11 0.01 0.30 0.14 0.01 0.30 0.17 0.01 0.30 0.20 0.01 0.30 0.24 0.01 0.30 0.26 0.01 0.30 0.30 0.01 0.30 0.33 0.01 0.30 0.36 0.01 0.30 0.39 0.01 0.30 0.42 0.01 0.30 0.45 0.01 0.30 0.49 0.01 0.30 0.51 0.01 0.30 0.55 0.01 0.30 0.58 0.01 0.30 0.61 0.01 0.30 0.64 0.01 0.30 0.67 0.01 0.30 0.70 0.01 0.30 0.74 0.01 0.30 0.76 0.01 0.30 0.80 0.01 0.30 0.83 0.01 0.30 0.86 0.01 0.30 0.89 0.01 0.30 0.92 0.01 0.30 0.95 0.01 0.30 0.99 0.01 0.33 0.01 0.01 0.33 0.05 0.01 0.33 0.08 0.01 0.33 0.11 0.01 0.33 0.14 0.01 0.33 0.17 0.01 0.33 0.20 0.01 0.33 0.24 0.01 0.33 0.26 0.01 0.33 0.30 0.01 0.33 0.33 0.01 0.33 0.36 0.01 0.33 0.39 0.01 0.33 0.42 0.01 0.33 0.45 0.01 0.33 0.49 0.01 0.33 0.51 0.01 0.33 0.55 0.01 0.33 0.58 0.01 0.33 0.61 0.01 0.33 0.64 0.01 0.33 0.67 0.01 0.33 0.70 0.01 0.33 0.74 0.01 0.33 0.76 0.01 0.33 0.80 0.01 0.33 0.83 0.01 0.33 0.86 0.01 0.33 0.89 0.01 0.33 0.92 0.01 0.33 0.95 0.01 0.33 0.99 0.01 0.36 0.01 0.01 0.36 0.05 0.01 0.36 0.08 0.01 0.36 0.11 0.01 0.36 0.14 0.01 0.36 0.17 0.01 0.36 0.20 0.01 0.36 0.24 0.01 0.36 0.26 0.01 0.36 0.30 0.01 0.36 0.33 0.01 0.36 0.36 0.01 0.36 0.39 0.01 0.36 0.42 0.01 0.36 0.45 0.01 0.36 0.49 0.01 0.36 0.51 0.01 0.36 0.55 0.01 0.36 0.58 0.01 0.36 0.61 0.01 0.36 0.64 0.01 0.36 0.67 0.01 0.36 0.70 0.01 0.36 0.74 0.01 0.36 0.76 0.01 0.36 0.80 0.01 0.36 0.83 0.01 0.36 0.86 0.01 0.36 0.89 0.01 0.36 0.92 0.01 0.36 0.95 0.01 0.36 0.99 0.01 0.39 0.01 0.01 0.39 0.05 0.01 0.39 0.08 0.01 0.39 0.11 0.01 0.39 0.14 0.01 0.39 0.17 0.01 0.39 0.20 0.01 0.39 0.24 0.01 0.39 0.26 0.01 0.39 0.30 0.01 0.39 0.33 0.01 0.39 0.36 0.01 0.39 0.39 0.01 0.39 0.42 0.01 0.39 0.45 0.01 0.39 0.49 0.01 0.39 0.51 0.01 0.39 0.55 0.01 0.39 0.58 0.01 0.39 0.61 0.01 0.39 0.64 0.01 0.39 0.67 0.01 0.39 0.70 0.01 0.39 0.74 0.01 0.39 0.76 0.01 0.39 0.80 0.01 0.39 0.83 0.01 0.39 0.86 0.01 0.39 0.89 0.01 0.39 0.92 0.01 0.39 0.95 0.01 0.39 0.99 0.01 0.42 0.01 0.01 0.42 0.05 0.01 0.42 0.08 0.01 0.42 0.11 0.01 0.42 0.14 0.01 0.42 0.17 0.01 0.42 0.20 0.01 0.42 0.24 0.01 0.42 0.26 0.01 0.42 0.30 0.01 0.42 0.33 0.01 0.42 0.36 0.01 0.42 0.39 0.01 0.42 0.42 0.01 0.42 0.45 0.01 0.42 0.49 0.01 0.42 0.51 0.01 0.42 0.55 0.01 0.42 0.58 0.01 0.42 0.61 0.01 0.42 0.64 0.01 0.42 0.67 0.01 0.42 0.70 0.01 0.42 0.74 0.01 0.42 0.76 0.01 0.42 0.80 0.01 0.42 0.83 0.01 0.42 0.86 0.01 0.42 0.89 0.01 0.42 0.92 0.01 0.42 0.95 0.01 0.42 0.99 0.01 0.45 0.01 0.01 0.45 0.05 0.01 0.45 0.08 0.01 0.45 0.11 0.01 0.45 0.14 0.01 0.45 0.17 0.01 0.45 0.20 0.01 0.45 0.24 0.01 0.45 0.26 0.01 0.45 0.30 0.01 0.45 0.33 0.01 0.45 0.36 0.01 0.45 0.39 0.01 0.45 0.42 0.01 0.45 0.45 0.01 0.45 0.49 0.01 0.45 0.51 0.01 0.45 0.55 0.01 0.45 0.58 0.01 0.45 0.61 0.01 0.45 0.64 0.01 0.45 0.67 0.01 0.45 0.70 0.01 0.45 0.74 0.01 0.45 0.76 0.01 0.45 0.80 0.01 0.45 0.83 0.01 0.45 0.86 0.01 0.45 0.89 0.01 0.45 0.92 0.01 0.45 0.95 0.01 0.45 0.99 0.01 0.49 0.01 0.01 0.49 0.05 0.01 0.49 0.08 0.01 0.49 0.11 0.01 0.49 0.14 0.01 0.49 0.17 0.01 0.49 0.20 0.01 0.49 0.24 0.01 0.49 0.26 0.01 0.49 0.30 0.01 0.49 0.33 0.01 0.49 0.36 0.01 0.49 0.39 0.01 0.49 0.42 0.01 0.49 0.45 0.01 0.49 0.49 0.01 0.49 0.51 0.01 0.49 0.55 0.01 0.49 0.58 0.01 0.49 0.61 0.01 0.49 0.64 0.01 0.49 0.67 0.01 0.49 0.70 0.01 0.49 0.74 0.01 0.49 0.76 0.01 0.49 0.80 0.01 0.49 0.83 0.01 0.49 0.86 0.01 0.49 0.89 0.01 0.49 0.92 0.01 0.49 0.95 0.01 0.49 0.99 0.01 0.51 0.01 0.01 0.51 0.05 0.01 0.51 0.08 0.01 0.51 0.11 0.01 0.51 0.14 0.01 0.51 0.17 0.01 0.51 0.20 0.01 0.51 0.24 0.01 0.51 0.26 0.01 0.51 0.30 0.01 0.51 0.33 0.01 0.51 0.36 0.01 0.51 0.39 0.01 0.51 0.42 0.01 0.51 0.45 0.01 0.51 0.49 0.01 0.51 0.51 0.01 0.51 0.55 0.01 0.51 0.58 0.01 0.51 0.61 0.01 0.51 0.64 0.01 0.51 0.67 0.01 0.51 0.70 0.01 0.51 0.74 0.01 0.51 0.76 0.01 0.51 0.80 0.01 0.51 0.83 0.01 0.51 0.86 0.01 0.51 0.89 0.01 0.51 0.92 0.01 0.51 0.95 0.01 0.51 0.99 0.01 0.55 0.01 0.01 0.55 0.05 0.01 0.55 0.08 0.01 0.55 0.11 0.01 0.55 0.14 0.01 0.55 0.17 0.01 0.55 0.20 0.01 0.55 0.24 0.01 0.55 0.26 0.01 0.55 0.30 0.01 0.55 0.33 0.01 0.55 0.36 0.01 0.55 0.39 0.01 0.55 0.42 0.01 0.55 0.45 0.01 0.55 0.49 0.01 0.55 0.51 0.01 0.55 0.55 0.01 0.55 0.58 0.01 0.55 0.61 0.01 0.55 0.64 0.01 0.55 0.67 0.01 0.55 0.70 0.01 0.55 0.74 0.01 0.55 0.76 0.01 0.55 0.80 0.01 0.55 0.83 0.01 0.55 0.86 0.01 0.55 0.89 0.01 0.55 0.92 0.01 0.55 0.95 0.01 0.55 0.99 0.01 0.58 0.01 0.01 0.58 0.05 0.01 0.58 0.08 0.01 0.58 0.11 0.01 0.58 0.14 0.01 0.58 0.17 0.01 0.58 0.20 0.01 0.58 0.24 0.01 0.58 0.26 0.01 0.58 0.30 0.01 0.58 0.33 0.01 0.58 0.36 0.01 0.58 0.39 0.01 0.58 0.42 0.01 0.58 0.45 0.01 0.58 0.49 0.01 0.58 0.51 0.01 0.58 0.55 0.01 0.58 0.58 0.01 0.58 0.61 0.01 0.58 0.64 0.01 0.58 0.67 0.01 0.58 0.70 0.01 0.58 0.74 0.01 0.58 0.76 0.01 0.58 0.80 0.01 0.58 0.83 0.01 0.58 0.86 0.01 0.58 0.89 0.01 0.58 0.92 0.01 0.58 0.95 0.01 0.58 0.99 0.01 0.61 0.01 0.01 0.61 0.05 0.01 0.61 0.08 0.01 0.61 0.11 0.01 0.61 0.14 0.01 0.61 0.17 0.01 0.61 0.20 0.01 0.61 0.24 0.01 0.61 0.26 0.01 0.61 0.30 0.01 0.61 0.33 0.01 0.61 0.36 0.01 0.61 0.39 0.01 0.61 0.42 0.01 0.61 0.45 0.01 0.61 0.49 0.01 0.61 0.51 0.01 0.61 0.55 0.01 0.61 0.58 0.01 0.61 0.61 0.01 0.61 0.64 0.01 0.61 0.67 0.01 0.61 0.70 0.01 0.61 0.74 0.01 0.61 0.76 0.01 0.61 0.80 0.01 0.61 0.83 0.01 0.61 0.86 0.01 0.61 0.89 0.01 0.61 0.92 0.01 0.61 0.95 0.01 0.61 0.99 0.01 0.64 0.01 0.01 0.64 0.05 0.01 0.64 0.08 0.01 0.64 0.11 0.01 0.64 0.14 0.01 0.64 0.17 0.01 0.64 0.20 0.01 0.64 0.24 0.01 0.64 0.26 0.01 0.64 0.30 0.01 0.64 0.33 0.01 0.64 0.36 0.01 0.64 0.39 0.01 0.64 0.42 0.01 0.64 0.45 0.01 0.64 0.49 0.01 0.64 0.51 0.01 0.64 0.55 0.01 0.64 0.58 0.01 0.6
[...]
POINT_DATA 32768
SCALARS sol float
LOOKUP_TABLE default
-0.34 -0.40 0.12 -0.05 0.01 -0.00 0.00 0.00 -0.00 0.00 -0.00 0.00 -0.00 0.00 -0.00 -0.00 0.00 -0.00 0.00 -0.00 0.00 -0.00 -0.00 0.00 -0.00 0.00 -0.00 0.00 -0.00 -0.00 0.00 -0.00 -0.40 -0.54 0.04 0.03 -0.02 0.01 -0.00 0.00 -0.00 -0.00 0.00 -0.00 0.00 -0.00 0.00 -0.00 0.00 0.00 -0.00 0.00 -0.00 0.00 -0.00 0.00 0.00 -0.00 0.00 -0.00 0.00 -0.00 0.00 -0.00 0.12 0.04 -0.03 0.06 -0.02 0.00 0.00 -0.00 0.00 -0.00 0.00 -0.00 -0.00 0.00 -0.00 0.00 -0.00 0.00 -0.00 -0.00 0.00 -0.00 0.00 -0.00 0.00 -0.00 -0.00 0.00 -0.00 0.00 -0.00 0.00 -0.05 0.03 0.06 0.02 0.01 -0.01 0.00 -0.00 -0.00 0.00 -0.00 0.00 -0.00 0.00 0.00 -0.00 0.00 -0.00 0.00 -0.00 0.00 0.00 -0.00 0.00 -0.00 0.00 -0.00 0.00 -0.00 -0.00 0.00 -0.00 0.01 -0.02 -0.02 0.01 0.00 -0.00 -0.00 0.00 -0.00 0.00 -0.00 -0.00 0.00 -0.00 0.00 -0.00 0.00 0.00 -0.00 0.00 -0.00 0.00 -0.00 0.00 0.00 -0.00 0.00 -0.00 0.00 -0.00 0.00 0.00 -0.00 0.01 0.00 -0.01 -0.00 -0.00 -0.00 0.00 0.00 -0.00 0.00 -0.00 0.00 0.00 -0.00 0.00 -0.00 0.00 -0.00 -0.00 0.00 -0.00 0.00 -0.00 0.00 -0.00 -0.00 0.00 -0.00 0.00 -0.00 0.00 0.00 -0.00 0.00 0.00 -0.00 -0.00 -0.00 0.00 0.00 -0.00 0.00 0.00 -0.00 0.00 -0.00 0.00 0.00 -0.00 0.00 -0.00 0.00 -0.00 -0.00 0.00 -0.00 0.00 -0.00 0.00 -0.00 -0.00 0.00 -0.00 0.00 0.00 -0.00 -0.00 0.00 0.00 0.00 0.00 0.00 -0.00 -0.00 0.00 -0.00 -0.00 0.00 -0.00 0.00 -0.00 -0.00 0.00 -0.00 0.00 -0.00 0.00 0.00 -0.00 0.00 -0.00 0.00 -0.00 0.00 0.00 -0.00 -0.00 0.00 -0.00 -0.00 0.00 0.00 0.00 0.00 -0.00 -0.00 0.00 0.00 -0.00 0.00 0.00 -0.00 0.00 -0.00 0.00 -0.00 -0.00 0.00 -0.00 0.00 -0.00 0.00 0.00 -0.00 0.00 -0.00 0.00 0.00 -0.00 -0.00 0.00 0.00 -0.00 -0.00 -0.00 -0.00 -0.00 -0.00 0.00 0.00 -0.00 -0.00 0.00 -0.00 0.00 0.00 -0.00 0.00 -0.00 0.00 0.00 -0.00 0.00 -0.00 0.00 -0.00 -0.00 0.00 -0.00 -0.00 0.00 0.00 -0.00 -0.00 0.00 0.00 -0.00 -0.00 -0.00 -0.00 0.00 0.00 -0.00 -0.00 0.00 0.00 -0.00 0.00 -0.00 -0.00 0.00 -0.00 0.00 -0.00 0.00 0.00 -0.00 0.00 -0.00 0.00 -0.00 0.00 -0.00 -0.00 0.00 -0.00 -0.00 0.00 0.00 0.00 0.00 0.00 0.00 0.00 -0.00 -0.00 0.00 0.00 -0.00 -0.00 0.00 -0.00 0.00 -0.00 -0.00 0.00 -0.00 0.00 -0.00 -0.00 0.00 -0.00 0.00 -0.00 0.00 -0.00 -0.00 0.00 0.00 -0.00 -0.00 0.00 0.00 0.00 0.00 0.00 -0.00 -0.00 0.00 0.00 -0.00 -0.00 0.00 -0.00 -0.00 0.00 -0.00 0.00 0.00 -0.00 0.00 -0.00 0.00 -0.00 -0.00 0.00 -0.00 0.00 0.00 -0.00 0.00 0.00 -0.00 -0.00 -0.00 -0.00 -0.00 -0.00 -0.00 -0.00 0.00 0.00 -0.00 -0.00 0.00 0.00 -0.00 0.00 0.00 -0.00 0.00 -0.00 0.00 0.00 -0.00 0.00 -0.00 -0.00 0.00 -0.00 0.00 0.00 -0.00 -0.00 0.00 0.00 -0.00 -0.00 -0.00 -0.00 -0.00 -0.00 0.00 0.00 -0.00 -0.00 0.00 0.00 -0.00 -0.00 0.00 -0.00 -0.00 0.00 -0.00 0.00 -0.00 -0.00 0.00 -0.00 -0.00 0.00 -0.00 -0.00 0.00 0.00 -0.00 0.00 0.00 0.00 0.00 0.00 0.00 0.00 0.00 0.00 -0.00 -0.00 0.00 0.00 -0.00 -0.00 0.00 0.00 -0.00 0.00 -0.00 -0.00 0.00 -0.00 0.00 0.00 0.00 -0.00 0.00 0.00 -0.00 0.00 0.00 -0.00 -0.00 0.00 0.00 0.00 0.00 0.00 0.00 0.00 -0.00 -0.00 0.00 0.00 -0.00 -0.00 0.00 0.00 -0.00 0.00 0.00 -0.00 0.00 0.00 -0.00 -0.00 0.00 0.00 -0.00 0.00 0.00 -0.00 -0.00 0.00 0.00 -0.00 -0.00 -0.00 -0.00 -0.00 -0.00 -0.00 -0.00 -0.00 -0.00 0.00 -0.00 -0.00 0.00 0.00 -0.00 -0.00 0.00 -0.00 -0.00 0.00 -0.00 0.00 -0.00 -0.00 0.00 -0.00 -0.00 0.00 -0.00 -0.00 0.00 0.00 -0.00 -0.00 -0.00 -0.00 -0.00 -0.00 -0.00 -0.00 -0.00 0.00 0.00 -0.00 0.00 0.00 -0.00 -0.00 0.00 -0.00 -0.00 0.00 0.00 -0.00 0.00 -0.00 -0.00 0.00 -0.00 -0.00 0.00 0.00 -0.00 -0.00 0.00 0.00 0.00 0.00 0.00 0.00 -0.00 -0.00 0.00 0.00 0.00 -0.00 -0.00 0.00 0.00 -0.00 0.00 0.00 -0.00 0.00 0.00 0.00 -0.00 0.00 0.00 -0.00 0.00 0.00 -0.00 -0.00 0.00 -0.00 -0.00 -0.00 0.00 0.00 0.00 0.00 0.00 0.00 0.00 0.00 -0.00 -0.00 -0.00 0.00 0.00 -0.00 0.00 0.00 -0.00 -0.00 0.00 -0.00 0.00 -0.00 0.00 0.00 -0.00 -0.00 0.00 -0.00 -0.00 0.00 0.00 -0.00 -0.00 -0.00 -0.00 -0.00 -0.00 0.00 0.00 -0.00 -0.00 -0.00 -0.00 0.00 0.00 -0.00 -0.00 0.00 -0.00 -0.00 0.00 -0.00 -0.00 0.00 -0.00 -0.00 0.00 -0.00 -0.00 0.00 0.00 -0.00 -0.00 0.00 0.00 -0.00 -0.00 -0.00 -0.00 -0.00 -0.00 -0.00 -0.00 -0.00 -0.00 0.00 0.00 -0.00 -0.00 0.00 0.00 -0.00 0.00 0.00 0.00 -0.00 0.00 0.00 -0.00 0.00 0.00 -0.00 0.00 0.00 -0.00 -0.00 0.00 0.00 0.00 0.00 0.00 0.00 -0.00 -0.00 -0.00 -0.00 0.00 0.00 0.00 -0.00 -0.00 0.00 0.00 -0.00 -0.00 -0.00 0.00 0.00 -0.00 0.00 0.00 -0.00 0.00 0.00 -0.00 -0.00 0.00 0.00 -0.00 -0.00 0.00 0.00 0.00 0.00 0.00 0.00 0.00 0.00 0.00 0.00 0.00 -0.00 -0.00 0.00 0.00 -0.00 -0.00 0.00 -0.00 -0.00 0.00 -0.00 -0.00 0.00 -0.00 -0.00 0.00 0.00 -0.00 0.00 0.00 -0.00 -0.00 -0.00 -0.00 -0.00 0.00 0.00 0.00 0.00 0.00 0.00 -0.00 -0.00 -0.00 0.00 0.00 -0.00 -0.00 -0.00 0.00 -0.00 -0.00 0.00 -0.00 -0.00 0.00 0.00 -0.00 0.00 0.00 -0.00 -0.00 0.00 0.00 0.00 -0.00 -0.00 -0.00 -0.00 -0.00 -0.00 -0.00 -0.00 -0.00 -0.00 -0.00 0.00 0.00 -0.00 -0.00 0.00 -0.00 0.00 0.00 -0.00 0.00 0.00 -0.00 0.00 0.00 -0.00 -0.00 0.00 0.00 -0.00 -0.00 0.00 0.00 0.00 0.00 0.00 -0.00 -0.00 -0.00 -0.00 -0.00 -0.00 0.00 0.00 0.00 -0.00 -0.00 -0.00 0.00 -0.00 -0.00 0.00 -0.00 -0.00 0.00 -0.00 -0.00 0.00 -0.00 -0.00 0.00 0.00 -0.00 -0.00 -0.00 -0.00 0.00 0.00 0.00 0.00 0.00 0.00 0.00 0.00 0.00 0.00 0.00 -0.00 -0.00 -0.00 -0.00 0.00 -0.00 -0.00 0.00 -0.00 -0.00 0.00 -0.00 -0.00 0.00 0.00 -0.00 -0.00 0.00 0.00 -0.00 -0.00 -0.00 -0.00 -0.00 0.00 0.00 0.00 0.00 0.00 0.00 0.00 0.00 -0.00 -0.00 0.00 0.00 -0.00 0.00 0.00 -0.00 0.00 0.00 -0.00 0.00 0.00 -0.00 -0.00 0.00 -0.00 -0.00 0.00 0.00 0.00 0.00 -0.00 -0.00 -0.00 -0.00 -0.00 -0.00 -0.00 -0.00 -0.00 -0.00 -0.00 -0.00 -0.00 -0.00 0.00 -0.00 0.00 0.00 -0.00 0.00 0.00 -0.00 -0.00 0.00 -0.00 -0.00 0.00 0.00 -0.00 -0.00 0.00 0.00 0.00 0.00 0.00 -0.00 -0.00 -0.00 -0.00 -0.00 -0.00 -0.00 -0.00 0.00 19.62 -2.19 0.33 0.07 -0.03 0.02 -0.00 0.00 -0.00 -0.00 0.00 -0.00 0.00 -0.00 0.00 -0.00 0.00 0.00 -0.00 0.00 -0.00 0.00 -0.00 0.00 0.00 -0.00 0.00 -0.00 0.00 -0.00 0.00 -0.00 -2.19 2.97 -0.97 0.20 -0.01 -0.02 0.01 -0.00 0.00 -0.00 0.00 -0.00 -0.00 0.00 -0.00 0.00 -0.00 0.00 -0.00 -0.00 0.00 -0.00 0.00 -0.00 0.00 -0.00 0.00 0.00 -0.00 0.00 -0.00 0.00 0.33 -0.97 -0.00 -0.20 0.10 -0.03 0.01 0.00 -0.00 0.00 -0.00 0.00 -0.00 0.00 0.00 -0.00 0.00 -0.00 0.00 -0.00 0.00 0.00 -0.00 0.00 -0.00 0.00 -0.00 0.00 -0.00 -0.00 0.00 -0.00 0.07 0.20 -0.20 0.00 0.01 0.02 -0.01 0.01 -0.00 0.00 0.00 -0.00 0.00 -0.00 0.00 -0.00 0.00 0.00 -0.00 0.00 -0.00 0.00 -0.00 0.00 0.00 -0.00 0.00 -0.00 0.00 -0.00 0.00 0.00 -0.03 -0.01 0.10 0.01 0.03 0.01 -0.00 -0.00 0.00 -0.00 0.00 -0.00 -0.00 0.00 -0.00 0.00 -0.00 0.00 -0.00 -0.00 0.00 -0.00 0.00 -0.00 0.00 -0.00 -0.00 0.00 -0.00 0.00 -0.00 0.00 0.02 -0.02 -0.03 0.02 0.01 0.00 -0.00 -0.00 0.00 -0.00 -0.00 0.00 -0.00 0.00 -0.00 -0.00 0.00 -0.00 0.00 -0.00 0.00 0.00 -0.00 0.00 -0.00 0.00 -0.00 0.00 0.00 -0.00 0.00 -0.00 -0.00 0.01 0.01 -0.01 -0.00 -0.00 -0.00 -0.00 0.00 0.00 -0.00 0.00 0.00 -0.00 0.00 -0.00 0.00 0.00 -0.00 0.00 -0.00 0.00 -0.00 0.00 0.00 -0.00 0.00 -0.00 0.00 -0.00 0.00 0.00 0.00 -0.00 0.00 0.01 -0.00 -0.00 -0.00 -0.00 -0.00 0.00 0.00 -0.00 0.00 -0.00 -0.00 0.00 -0.00 0.00 -0.00 0.00 0.00 -0.00 0.00 -0.00 0.00 -0.00 -0.00 0.00 -0.00 0.00 -0.00 0.00 -0.00 0.00 -0.00 -0.00 0.00 0.00 0.00 -0.00 0.00 0.00 -0.00 -0.00 0.00 0.00 -0.00 0.00 -0.00 -0.00 0.00 -0.00 0.00 -0.00 0.00 0.00 -0.00 0.00 -0.00 0.00 -0.00 -0.00 0.00 -0.00 -0.00 -0.00 0.00 0.00 -0.00 -0.00 0.00 0.00 0.00 0.00 -0.00 -0.00 0.00 0.00 -0.00 -0.00 0.00 -0.00 0.00 0.00 -0.00 0.00 -0.00 0.00 -0.00 -0.00 0.00 -0.00 0.00 -0.00 0.00 0.00 0.00 0.00 -0.00 0.00 0.00 -0.00 -0.00 0.00 -0.00 -0.00 -0.00 -0.00 0.00 0.00 -0.00 -0.00 0.00 0.00 -0.00 0.00 -0.00 0.00 0.00 -0.00 0.00 -0.00 0.00 -0.00 -0.00 0.00 -0.00 0.00 -0.00 -0.00 0.00 -0.00 -0.00 0.00 0.00 -0.00 -0.00 -0.00 -0.00 -0.00 -0.00 0.00 0.00 -0.00 0.00 0.00 -0.00 0.00 0.00 -0.00 0.00 -0.00 -0.00 0.00 -0.00 0.00 -0.00 0.00 0.00 -0.00 0.00 -0.00 -0.00 0.00 -0.00 -0.00 0.00 0.00 0.00 0.00 0.00 -0.00 0.00 0.00 0.00 -0.00 0.00 0.00 -0.00 -0.00 0.00 -0.00 -0.00 0.00 -0.00 0.00 -0.00 -0.00 0.00 -0.00 0.00 -0.00 -0.00 0.00 0.00 -0.00 0.00 0.00 -0.00 -0.00 0.00 0.00 0.00 0.00 0.00 0.00 -0.00 -0.00 -0.00 0.00 -0.00 -0.00 0.00 0.00 -0.00 0.00 0.00 -0.00 0.00 -0.00 0.00 0.00 -0.00 0.00 0.00 -0.00 0.00 0.00 -0.00 -0.00 0.00 -0.00 -0.00 -0.00 -0.00 0.00 0.00 -0.00 0.00 -0.00 -0.00 0.00 0.00 -0.00 0.00 0.00 -0.00 -0.00 0.00 -0.00 0.00 0.00 -0.00 0.00 -0.00 0.00 -0.00 0.00 -0.00 -0.00 0.00 -0.00 -0.00 0.00 0.00 -0.00 -0.00 -0.00 -0.00 -0.00 -0.00 -0.00 -0.00 0.00 0.00 -0.00 -0.00 0.00 -0.00 -0.00 0.00 0.00 -0.00 0.00 -0.00 -0.00 0.00 -0.00 0.00 -0.00 0.00 0.00 -0.00 0.00 0.00 -0.00 -0.00 0.00 0.00 0.00 0.00 -0.00 -0.00 -0.00 0.00 0.00 0.00 -0.00 -0.00 0.00 0.00 -0.00 0.00 0.00 -0.00 0.00 0.00 -0.00 0.00 -0.00 0.00 0.00 -0.00 0.00 0.00 -0.00 0.00 0.00 -0.00 -0.00 0.00 0.00 0.00 0.00 0.00 0.00 0.00 0.00 0.00 -0.00 -0.00 0.00 0.00 -0.00 0.00 0.00 -0.00 -0.00 0.00 -0.00 -0.00 0.00 -0.00 -0.00 0.00 -0.00 -0.00 0.00 -0.00 -0.00 0.00 0.00 -0.00 -0.00 -0.00 -0.00 0.00 0.00 0.00 0.00 0.00 -0.00 -0.00 0.00 0.00 -0.00 -0.00 0.00 -0.00 -0.00 0.00 0.00 -0.00 0.00 0.00 -0.00 -0.00 0.00 -0.00 -0.00 0.00 0.00 -0.00 0.00 0.00 0.00 -0.00 -0.00 -0.00 -0.00 -0.00 -0.00 -0.00 -0.00 -0.00 0.00 0.00 -0.00 -0.00 0.00 0.00 -0.00 0.00 0.00 -0.00 -0.00 -0.00 0.00 0.00 -0.00 0.00 0.00 -0.00 0.00 0.00 -0.00 -0.00 0.00 0.00 0.00 0.00 -0.00 -0.00 -0.00 -0.00 -0.00 0.00 0.00 0.00 -0.00 -0.00 0.00 0.00 -0.00 -0.00 0.00 -0.00 -0.00 0.00 -0.00 0.00 0.00 -0.00 0.00 0.00 -0.00 -0.00 0.00 0.00 -0.00 -0.00 0.00 0.00 0.00 0.00 0.00 0.00 0.00 0.00 0.00 0.00 -0.00 -0.00 0.00 0.00 -0.00 -0.00 0.00 0.00 -0.00 -0.00 0.00 -0.00 -0.00 0.00 -0.00 -0.00 0.00 0.00 -0.00 0.00 0.00 -0.00 -0.00 -0.00 -0.00 0.00 0.00 0.00 0.00 0.00 0.00 0.00 -0.00 -0.00 0.00 0.00 -0.00 -0.00 0.00 0.00 -0.00 0.00 -0.00 0.00 0.00 -0.00 0.00 0.00 -0.00 0.00 0.00 -0.00 -0.00 0.00 0.00 -0.00 -0.00 -0.00 -0.00 -0.00 -0.00 -0.00 -0.00 -0.00 -0.00 -0.00 0.00 0.00 -0.00 -0.00 0.00 0.00 -0.00 0.00 0.00 -0.00 0.00 0.00 -0.00 0.00 0.00 -0.00 -0.00 0.00 -0.00 -0.00 0.00 0.00 0.00 0.00 0.00 -0.00 -0.00 -0.00 -0.00 -0.00 -0.00 -0.00 0.00 0.00 -0.00 -0.00 0.00 0.00 -0.00 -0.00 -0.00 0.00 -0.00 -0.00 0.00 -0.00 -0.00 0.00 -0.00 -0.00 0.00 0.00 -0.00 -0.00 0.00 0.00 0.00 0.00 0.00 0.00 0.00 0.00 0.00 0.00 0.00 0.00 -0.00 -0.00 0.00 0.00 -0.00 0.00 0.00 -0.00 0.00 -0.00 -0.00 0.00 -0.00 -0.00 0.00 0.00 -0.00 -0.00 0.00 0.00 -0.00 -0.00 -0.00 -0.00 0.00 0.00 0.00 0.00 0.00 0.00 0.00 0.00 -0.00 -0.00 0.00 0.00 -0.00 -0.00 0.00 0.00 -0.00 0.00 0.00 -0.00 0.00 0.00 -0.00 -0.00 0.00 -0.00 -0.00 0.00 0.00 0.00 -0.00 -0.00 -0.00 -0.00 -0.00 -0.00 -0.00 -0.00 -0.00 -0.00 -0.00 -0.00 0.00 0.00 -0.00 0.00 -0.00 -0.00 0.00 -0.00 0.00 0.00 -0.00 -0.00 0.00 -0.00 -0.00 0.00 0.00 -0.00 -0.00 0.00 0.00 0.00 0.00 -0.00 -0.00 -0.00 -0.00 -0.00 -0.00 -0.00 -0.00 -0.00 0.00 0.00 -0.00 -0.00 0.00 -0.00 -0.00 0.00 -0.00 -0.00 0.00 -0.00 -0.00 0.00 0.00 -0.00 0.00 0.00 -0.00 -0.00 -0.00 0.00 0.00 0.00 0.00 0.00 0.00 0.00 0.00 0.00 0.00 0.00 0.00 0.00 -0.00 0.00 -0.00 0.00 0.00 -0.00 0.00 0.00 -0.00 0.00 0.00 -0.00 0.00 0.00 -0.00 -0.00 0.00 0.00 -0.00 -0.00 -0.00 -0.00 0.00 0.00 0.00 0.00 0.00 0.00 0.00 0.00 0.00 0.00 -0.00 -0.00 0.00 -0.00 0.00 0.00 -0.00 0.00 0.00 -0.00 0.00 0.00 -0.00 -0.00 0.00 0.00 -0.00 -0.00 0.00 0.00 -0.00 -0.00 -0.00 -0.00 -0.00 -0.00 -0.00 -0.00 -0.00 -0.00 -0.00 -0.00 -0.00 31.59 1.27 -0.76 0.46 -0.09 0.01 0.00 -0.00 0.00 -0.00 0.00 -0.00 0.00 0.00 -0.00 0.00 -0.00 0.00 -0.00 -0.00 0.00 -0.00 0.00 -0.00 0.00 -0.00 0.00 0.00 -0.00 0.00 -0.00 0.00 1.27 13.46 -0.24 -0.63 0.36 -0.14 0.03 -0.00 -0.00 0.00 -0.00 0.00 -0.00 0.00 -0.00 -0.00 0.00 -0.00 0.00 -0.00 0.00 -0.00 -0.00 0.00 -0.00 0.00 -0.00 0.00 -0.00 -0.00 0.00 -0.00 -0.76 -0.24 2.30 -1.17 0.14 0.09 -0.07 0.03 -0.01 0.00 -0.00 -0.00 0.00 -0.00 0.00 -0.00 0.00 0.00 -0.00 0.00 -0.00 0.00 -0.00 0.00 0.00 -0.00 0.00 -0.00 0.00 -0.00 0.00 0.00 0.46 -0.63 -1.17 -0.14 -0.31 0.16 -0.04 -0.01 0.01 -0.01 0.00 -0.00 0.00 0.00 -0.00 0.00 -0.00 0.00 -0.00 -0.00 0.00 -0.00 0.00 -0.00 0.00 -0.00 -0.00 0.00 -0.00 0.00 -0.00 0.00 -0.09 0.36 0.14 -0.31 -0.03 0.04 0.03 -0.03 0.01 -0.00 -0.00 0.00 -0.00 0.00 -0.00 -0.00 0.00 -0.00 0.00 -0.00 0.00 -0.00 -0.00 0.00 -0.00 0.00 -0.00 0.00 -0.00 -0.00 0.00 -0.00 0.01 -0.14 0.09 0.16 0.04 0.05 0.02 -0.01 -0.00 0.00 -0.00 0.00 0.00 -0.00 0.00 -0.00 0.00 -0.00 -0.00 0.00 -0.00 0.00 -0.00 0.00 0.00 -0.00 0.00 -0.00 0.00 -0.00 0.00 0.00 0.00 0.03 -0.07 -0.04 0.03 0.02 0.01 -0.00 -0.00 0.00 0.00 -0.00 0.00 -0.00 0.00 0.00 -0.00 0.00 -0.00 0.00 0.00 -0.00 0.00 -0.00 0.00 -0.00 0.00 0.00 -0.00 0.00 -0.00 0.00 -0.00 -0.00 0.03 -0.01 -0.03 -0.01 -0.00 -0.00 -0.00 0.00 0.00 -0.00 0.00 0.00 -0.00 0.00 -0.00 -0.00 0.00 -0.00 0.00 -0.00 0.00 0.00 -0.00 0.00 -0.00 0.00 -0.00 -0.00 0.00 -0.00 0.00 -0.00 -0.01 0.01 0.01 -0.00 -0.00 -0.00 -0.00 0.00 0.00 -0.00 -0.00 0.00 -0.00 -0.00 0.00 -0.00 0.00 -0.00 -0.00 0.00 -0.00 0.00 -0.00 -0.00 0.00 -0.00 0.00 -0.00 0.00 -0.00 -0.00 0.00 0.00 -0.01 -0.00 0.00 0.00 0.00 0.00 0.00 0.00 -0.00 -0.00 0.00 0.00 -0.00 0.00 0.00 -0.00 0.00 -0.00 0.00 0.00 -0.00 0.00 -0.00 0.00 -0.00 -0.00 0.00 -0.00 0.00 0.00 -0.00 -0.00 0.00 -0.00 -0.00 0.00 0.00 0.00 0.00 0.00 -0.00 -0.00 0.00 0.00 -0.00 -0.00 0.00 -0.00 0.00 0.00 -0.00 0.00 -0.00 0.00 0.00 -0.00 0.00 -0.00 0.00 0.00 -0.00 -0.00 0.00 -0.00 -0.00 0.00 0.00 -0.00 -0.00 -0.00 -0.00 -0.00 -0.00 -0.00 -0.00 0.00 -0.00 -0.00 0.00 0.00 -0.00 0.00 -0.00 -0.00 0.00 -0.00 0.00 -0.00 -0.00 0.00 -0.00 0.00 -0.00 0.00 -0.00 0.00 0.00 -0.00 0.00 0.00 0.00 -0.00 -0.00 -0.00 -0.00 -0.00 -0.00 0.00 -0.00 -0.00 0.00 0.00 -0.00 0.00 0.00 -0.00 0.00 -0.00 -0.00 0.00 -0.00 0.00 -0.00 -0.00 0.00 0.00 0.00 -0.00 0.00 0.00 -0.00 -0.00 0.00 0.00 0.00 0.00 -0.00 -0.00 0.00 0.00 0.00 -0.00 -0.00 0.00 -0.00 -0.00 0.00 -0.00 -0.00 0.00 -0.00 0.00 0.00 -0.00 0.00 -0.00 0.00 -0.00 -0.00 0.00 -0.00 -0.00 0.00 0.00 -0.00 -0.00 0.00 0.00 0.00 0.00 0.00 0.00 0.00 -0.00 -0.00 0.00 -0.00 -0.00 0.00 0.00 -0.00 0.00 0.00 -0.00 0.00 -0.00 0.00 0.00 -0.00 0.00 -0.00 -0.00 0.00 -0.00 -0.00 0.00 0.00 -0.00 -0.00 -0.00 -0.00 -0.00 0.00 0.00 -0.00 -0.00 -0.00 0.00 0.00 -0.00 0.00 0.00 -0.00 -0.00 0.00 -0.00 -0.00 0.00 -0.00 0.00 -0.00 -0.00 0.00 0.00 -0.00 0.00 0.00 -0.00 -0.00 0.00 0.00 -0.00 -0.00 -0.00 -0.00 -0.00 -0.00 -0.00 -0.00 0.00 0.00 -0.00 -0.00 0.00 -0.00 -0.00 0.00 0.00 -0.00 0.00 -0.00 -0.00 0.00 0.00 -0.00 0.00 0.00 -0.00 -0.00 0.00 -0.00 -0.00 0.00 0.00 0.00 0.00 -0.00 -0.00 -0.00 -0.00 0.00 0.00 0.00 -0.00 -0.00 0.00 0.00 -0.00 0.00 0.00 -0.00 -0.00 0.00 -0.00 0.00 -0.00 0.00 -0.00 -0.00 0.00 -0.00 -0.00 0.00 0.00 -0.00 -0.00 0.00 0.00 0.00 0.00 0.00 0.00 0.00 0.00 0.00 -0.00 -0.00 0.00 0.00 -0.00 0.00 0.00 -0.00 -0.00 0.00 -0.00 -0.00 -0.00 -0.00 0.00 -0.00 -0.00 0.00 0.00 -0.00 -0.00 0.00 0.00 -0.00 -0.00 -0.00 -0.00 0.00 0.00 0.00 0.00 -0.00 -0.00 -0.00 0.00 0.00 -0.00 -0.00 0.00 -0.00 -0.00 0.00 0.00 -0.00 0.00 0.00 -0.00 0.00 0.00 -0.00 0.00 0.00 -0.00 -0.00 0.00 0.00 0.00 -0.00 -0.00 -0.00 -0.00 -0.00 -0.00 -0.00 -0.00 -0.00 0.00 0.00 -0.00 -0.00 0.00 0.00 -0.00 0.00 0.00 -0.00 -0.00 -0.00 0.00 -0.00 -0.00 0.00 -0.00 -0.00 0.00 0.00 -0.00 -0.00 0.00 0.00 0.00 0.00 -0.00 -0.00 -0.00 -0.00 -0.00 0.00 0.00 0.00 -0.00 -0.00 0.00 0.00 -0.00 -0.00 0.00 -0.00 0.00 -0.00 -0.00 0.00 -0.00 -0.00 0.00 0.00 -0.00 0.00 0.00 -0.00 -0.00 -0.00 0.00 0.00 0.00 0.00 0.00 0.00 0.00 0.00 0.00 0.00 -0.00 -0.00 0.00 0.00 -0.00 -0.00 0.00 0.00 -0.00 0.00 0.00 -0.00 0.00 0.00 -0.00 0.00 0.00 -0.00 -0.00 0.00 0.00 -0.00 -0.00 -0.00 -0.00 0.00 0.00 0.00 0.00 0.00 0.00 0.00 -0.00 -0.00 0.00 0.00 -0.00 -0.00 0.00 0.00 0.00 -0.00 0.00 0.00 -0.00 0.00 0.00 -0.00 -0.00 0.00 0.00 -0.00 -0.00 0.00 0.00 -0.00 -0.00 -0.00 -0.00 -0.00 -0.00 -0.00 -0.00 -0.00 -0.00 -0.00 0.00 0.00 -0.00 -0.00 0.00 0.00 -0.00 0.00 -0.00 -0.00 0.00 -0.00 -0.00 0.00 -0.00 -0.00 0.00 0.00 -0.00 -0.00 0.00 0.00 0.00 0.00 0.00 -0.00 -0.00 -0.00 -0.00 -0.00 -0.00 -0.00 0.00 0.00 -0.00 -0.00 0.00 0.00 0.00 -0.00 0.00 -0.00 -0.00 0.00 0.00 -0.00 0.00 0.00 -0.00 -0.00 0.00 0.00 -0.00 -0.00 0.00 0.00 0.00 0.00 0.00 0.00 0.00 0.00 0.00 0.00 0.00 0.00 -0.00 -0.00 0.00 0.00 0.00 0.00 -0.00 0.00 0.00 -0.00 0.00 0.00 -0.00 -0.00 0.00 -0.00 -0.00 0.00 0.00 -0.00 -0.00 -0.00 -0.00 -0.00 0.00 0.00 0.00 0.00 0.00 0.00 0.00 0.00 -0.00 -0.00 0.00 0.00 -0.00 -0.00 0.00 -0.00 -0.00 0.00 -0.00 -0.00 0.00 -0.00 -0.00 0.00 0.00 -0.00 -0.00 0.00 0.00 -0.00 -0.00 -0.00 -0.00 -0.00 -0.00 -0.00 -0.00 -0.00 -0.00 -0.00 -0.00 -0.00 0.00 0.00 0.00 -0.00 -0.00 0.00 -0.00 -0.00 0.00 -0.00 -0.00 0.00 0.00 -0.00 -0.00 0.00 0.00 -0.00 -0.00 0.00 0.00 0.00 0.00 -0.00 -0.00 -0.00 -0.00 -0.00 -0.00 -0.00 -0.00 -0.00 0.00 0.00 -0.00 0.00 0.00 -0.00 0.00 0.00 -0.00 0.00 0.00 -0.00 0.00 0.00 -0.00 -0.00 0.00 0.00 -0.00 -0.00 -0.00 0.00 0.00 0.00 0.00 0.00 0.00 0.00 0.00 0.00 0.00 0.00 0.00 0.00 0.00 -0.00 0.00 0.00 -0.00 0.00 0.00 -0.00 -0.00 0.00 -0.00 -0.00 0.00 0.00 -0.00 -0.00 0.00 0.00 -0.00 -0.00 -0.00 -0.00 0.00 0.00 0.00 0.00 0.00 0.00 0.00 0.00 0.00 0.00 31.07 3.19 -1.40 0.20 0.08 -0.06 0.02 -0.00 0.00 0.00 -0.00 0.00 -0.00 0.00 -0.00 -0.00 0.00 -0.00 0.00 -0.00 0.00 -0.00 -0.00 0.00 -0.00 0.00 -0.00 0.00 -0.00 -0.00 0.00 -0.00 3.19 23.94 6.04 -2.11 0.48 0.02 -0.05 0.03 -0.01 0.00 -0.00 -0.00 0.00 -0.00 0.00 -0.00 0.00 0.00 -0.00 0.00 -0.00 0.00 -0.00 0.00 0.00 -0.00 0.00 -0.00 0.00 -0.00 0.00 0.00 -1.40 6.04 13.39 0.50 -1.01 0.56 -0.11 -0.00 0.02 -0.01 0.00 -0.00 0.00 0.00 -0.00 0.00 -0.00 0.00 -0.00 -0.00 0.00 -0.00 0.00 -0.00 0.00 -0.00 -0.00 0.00 -0.00 0.00 -0.00 0.00 0.20 -2.11 0.50 3.23 -0.71 -0.23 0.23 -0.11 0.02 0.00 -0.00 0.00 -0.00 0.00 -0.00 -0.00 0.00 -0.00 0.00 -0.00 0.00 -0.00 -0.00 0.00 -0.00 0.00 -0.00 0.00 -0.00 -0.00 0.00 -0.00 0.08 0.48 -1.01 -0.71 0.18 -0.38 0.08 0.03 -0.04 0.02 -0.01 0.00 0.00 -0.00 0.00 -0.00 0.00 -0.00 -0.00 0.00 -0.00 0.00 -0.00 0.00 0.00 -0.00 0.00 -0.00 0.00 -0.00 0.00 0.00 -0.06 0.02 0.56 -0.23 -0.38 0.03 -0.04 0.04 -0.02 -0.00 0.01 -0.00 0.00 -0.00 -0.00 0.00 -0.00 0.00 -0.00 0.00 0.00 -0.00 0.00 -0.00 0.00 -0.00 0.00 0.00 -0.00 0.00 -0.00 0.00 0.02 -0.05 -0.11 0.23 0.08 -0.04 0.05 0.01 0.00 -0.01 0.00 -0.00 -0.00 0.00 -0.00 0.00 -0.00 -0.00 0.00 -0.00 0.00 -0.00 0.00 0.00 -0.00 0.00 -0.00 0.00 -0.00 -0.00 0.00 -0.00 -0.00 0.03 -0.00 -0.11 0.03 0.04 0.01 0.02 -0.00 -0.00 0.00 0.00 -0.00 0.00 0.00 -0.00 0.00 -0.00 0.00 0.00 -0.00 0.00 -0.00 0.00 -0.00 -0.00 0.00 -0.00 0.00 -0.00 0.00 0.00 0.00 -0.01 0.02 0.02 -0.04 -0.02 0.00 -0.00 0.00 -0.00 -0.00 0.00 -0.00 -0.00 0.00 -0.00 0.00 0.00 -0.00 0.00 -0.00 0.00 0.00 -0.00 0.00 -0.00 0.00 0.00 -0.00 0.00 -0.00 0.00 0.00 0.00 -0.01 0.00 0.02 -0.00 -0.01 -0.00 -0.00 -0.00 -0.00 0.00 0.00 -0.00 0.00 0.00 -0.00 0.00 -0.00 -0.00 0.00 -0.00 0.00 -0.00 -0.00 0.00 -0.00 0.00 -0.00 0.00 0.00 -0.00 -0.00 -0.00 0.00 -0.00 -0.01 0.01 0.00 0.00 -0.00 -0.00 0.00 0.00 0.00 -0.00 -0.00 0.00 -0.00 -0.00 0.00 -0.00 0.00 0.00 -0.00 0.00 -0.00 0.00 -0.00 -0.00 0.00 -0.00 0.00 -0.00 0.00 -0.00 -0.00 0.00 0.00 -0.00 -0.00 0.00 0.00 0.00 0.00 0.00 0.00 -0.00 -0.00 0.00 0.00 -0.00 0.00 0.00 -0.00 0.00 -0.00 0.00 0.00 -0.00 0.00 -0.00 0.00 0.00 -0.00 0.00 -0.00 0.00 0.00 -0.00 0.00 0.00 -0.00 -0.00 -0.00 0.00 0.00 0.00 0.00 -0.00 -0.00 0.00 0.00 -0.00 0.00 0.00 -0.00 0.00 0.00 -0.00 0.00 -0.00 -0.00 0.00 -0.00 0.00 -0.00 0.00 0.00 -0.00 0.00 0.00 -0.00 -0.00 0.00 0.00 -0.00 -0.00 -0.00 -0.00 -0.00 -0.00 -0.00 0.00 0.00 -0.00 -0.00 0.00 -0.00 -0.00 0.00 -0.00 -0.00 0.00 -0.00 0.00 -0.00 -0.00 0.00 -0.00 -0.00 0.00 -0.00 -0.00 0.00 -0.00 -0.00 0.00 0.00 0.00 -0.00 -0.00 -0.00 -0.00 0.00 0.00 0.00 -0.00 -0.00 0.00 0.00 -0.00 0.00 0.00 -0.00 0.00 -0.00 -0.00 0.00 -0.00 0.00 0.00 -0.00 -0.00 0.00 -0.00 -0.00 0.00 0.00 -0.00 -0.00 0.00 0.00 0.00 0.00 0.00 0.00 0.00 0.00 -0.00 -0.00 0.00 0.00 -0.00 -0.00 0.00 -0.00 -0.00 0.00 -0.00 0.00 0.00 -0.00 0.00 0.00 0.00 -0.00 0.00 0.00 -0.00 -0.00 0.00 0.00 -0.00 -0.00 0.00 0.00 0.00 0.00 0.00 0.00 -0.00 -0.00 0.00 0.00 -0.00 -0.00 0.00 -0.00 -0.00 0.00 0.00 -0.00 0.00 -0.00 -0.00 -0.00 0.00 0.00 -0.00 -0.00 0.00 -0.00 -0.00 0.00 0.00 -0.00 -0.0